<VTKFile type="UnstructuredGrid" version="1.0" byte_order="LittleEndian" header_type="UInt64">
<UnstructuredGrid>
<Piece NumberOfPoints="7320" NumberOfCells="4880">
<PointData>
<DataArray type="Float64" Name="σ" NumberOfComponents="9" format="ascii">
 9.3503868380547517e-01  3.4674781485302075e-01  0.0000000000000000e+00  3.4674781485302075e-01  1.7635179527891714e-02  0.0000000000000000e+00 
 0.0000000000000000e+00  0.0000000000000000e+00  0.0000000000000000e+00  9.4362826881597428e-01  3.5452207000549862e-01  0.0000000000000000e+00 
 3.5452207000549862e-01 -1.2199312904568759e-02  0.0000000000000000e+00  0.0000000000000000e+00  0.0000000000000000e+00  0.0000000000000000e+00 
 1.0087964589790406e+00  3.4944296534436725e-01  0.0000000000000000e+00  3.4944296534436725e-01 -6.0742552733282357e-03  0.0000000000000000e+00 
 0.0000000000000000e+00  0.0000000000000000e+00  0.0000000000000000e+00  9.5464317649359176e-01  3.5982660074342243e-01  0.0000000000000000e+00 
 3.5982660074342243e-01 -4.5216609193795262e-02  0.0000000000000000e+00  0.0000000000000000e+00  0.0000000000000000e+00  0.0000000000000000e+00 
 1.0227373146615835e+00  3.5409902112548020e-01  0.0000000000000000e+00  3.5409902112548020e-01 -3.6050166791314543e-02  0.0000000000000000e+00 
 0.0000000000000000e+00  0.0000000000000000e+00  0.0000000000000000e+00  1.0881437618697087e+00  3.4637026624048156e-01  0.0000000000000000e+00 
 3.4637026624048156e-01 -2.7717222347303099e-02  0.0000000000000000e+00  0.0000000000000000e+00  0.0000000000000000e+00  0.0000000000000000e+00 
 2.3457871017648291e+00  1.8089064157243750e-01  0.0000000000000000e+00  1.8089064157243750e-01  2.1459680499763018e-01  0.0000000000000000e+00 
 0.0000000000000000e+00  0.0000000000000000e+00  0.0000000000000000e+00  2.1278429940743715e+00  1.8967790719371558e-01  0.0000000000000000e+00 
 1.8967790719371558e-01  1.7898444773149011e-01  0.0000000000000000e+00  0.0000000000000000e+00  0.0000000000000000e+00  0.0000000000000000e+00 
 2.3671246986507768e+00  1.4772024511531390e-01  0.0000000000000000e+00  1.4772024511531390e-01  2.3857962604627472e-01  0.0000000000000000e+00 
 0.0000000000000000e+00  0.0000000000000000e+00  0.0000000000000000e+00  1.9126300608923832e+00  1.8302964503116634e-01  0.0000000000000000e+00 
 1.8302964503116634e-01  1.3961781266274739e-01  0.0000000000000000e+00  0.0000000000000000e+00  0.0000000000000000e+00  0.0000000000000000e+00 
 2.1363448054285299e+00  1.5318998110823071e-01  0.0000000000000000e+00  1.5318998110823071e-01  1.9817223791901142e-01  0.0000000000000000e+00 
 0.0000000000000000e+00  0.0000000000000000e+00  0.0000000000000000e+00  2.3850324442292683e+00  1.1200906335170546e-01  0.0000000000000000e+00 
 1.1200906335170546e-01  2.5797192146590925e-01  0.0000000000000000e+00  0.0000000000000000e+00  0.0000000000000000e+00  0.0000000000000000e+00 
-1.3368974240847087e-01  3.3171485920986887e-01  0.0000000000000000e+00  3.3171485920986887e-01 -1.0779556775435744e+00  0.0000000000000000e+00 
 0.0000000000000000e+00  0.0000000000000000e+00  0.0000000000000000e+00 -1.3487023760991862e-01  3.3969827193469077e-01  0.0000000000000000e+00 
 3.3969827193469077e-01 -1.1311328693450216e+00  0.0000000000000000e+00  0.0000000000000000e+00  0.0000000000000000e+00  0.0000000000000000e+00 
-9.8470419137245052e-02  2.5178660081172544e-01  0.0000000000000000e+00  2.5178660081172544e-01 -1.0397093675813891e+00  0.0000000000000000e+00 
 0.0000000000000000e+00  0.0000000000000000e+00  0.0000000000000000e+00 -1.3408397730072255e-01  3.4450790862397307e-01  0.0000000000000000e+00 
 3.4450790862397307e-01 -1.1832267986276592e+00  0.0000000000000000e+00  0.0000000000000000e+00  0.0000000000000000e+00  0.0000000000000000e+00 
-1.0323396912412064e-01  2.5867904476563719e-01  0.0000000000000000e+00  2.5867904476563719e-01 -1.0853495818673633e+00  0.0000000000000000e+00 
 0.0000000000000000e+00  0.0000000000000000e+00  0.0000000000000000e+00 -6.7651862481280162e-02  1.8084659903534597e-01  0.0000000000000000e+00 
 1.8084659903534597e-01 -9.9875795820891355e-01  0.0000000000000000e+00  0.0000000000000000e+00  0.0000000000000000e+00  0.0000000000000000e+00 
 4.2987181785274680e-03  1.0989475603883887e-01  0.0000000000000000e+00  1.0989475603883887e-01 -3.4173724006029915e-01  0.0000000000000000e+00 
 0.0000000000000000e+00  0.0000000000000000e+00  0.0000000000000000e+00  9.2183749956681674e-03  1.2304412446898468e-01  0.0000000000000000e+00 
 1.2304412446898468e-01 -3.6896832813512992e-01  0.0000000000000000e+00  0.0000000000000000e+00  0.0000000000000000e+00  0.0000000000000000e+00 
 3.5381048224926825e-02  1.3480059167248334e-01  0.0000000000000000e+00  1.3480059167248334e-01 -3.1031991293385514e-01  0.0000000000000000e+00 
 0.0000000000000000e+00  0.0000000000000000e+00  0.0000000000000000e+00  1.6787559611475423e-02  1.3480024482335015e-01  0.0000000000000000e+00 
 1.3480024482335015e-01 -3.9532088580969099e-01  0.0000000000000000e+00  0.0000000000000000e+00  0.0000000000000000e+00  0.0000000000000000e+00 
 4.3231958776229200e-02  1.4824827766985929e-01  0.0000000000000000e+00  1.4824827766985929e-01 -3.3527639667983017e-01  0.0000000000000000e+00 
 0.0000000000000000e+00  0.0000000000000000e+00  0.0000000000000000e+00  7.0343972992909856e-02  1.5970858130518437e-01  0.0000000000000000e+00 
 1.5970858130518437e-01 -2.8093012079363239e-01  0.0000000000000000e+00  0.0000000000000000e+00  0.0000000000000000e+00  0.0000000000000000e+00 
 4.4177827376860526e+00  1.5828723041824486e-01  0.0000000000000000e+00  1.5828723041824486e-01  2.3048633330062510e-01  0.0000000000000000e+00 
 0.0000000000000000e+00  0.0000000000000000e+00  0.0000000000000000e+00  4.5775579783117113e+00  2.4357761285838572e-01  0.0000000000000000e+00 
 2.4357761285838572e-01  1.9487928508231209e-01  0.0000000000000000e+00  0.0000000000000000e+00  0.0000000000000000e+00  0.0000000000000000e+00 
 4.6477623714992324e+00  1.9296922918412648e-01  0.0000000000000000e+00  1.9296922918412648e-01  1.8209501778695561e-01  0.0000000000000000e+00 
 0.0000000000000000e+00  0.0000000000000000e+00  0.0000000000000000e+00  4.7285913650789198e+00  3.5079524795147699e-01  0.0000000000000000e+00 
 3.5079524795147699e-01  1.5845899506683406e-01  0.0000000000000000e+00  0.0000000000000000e+00  0.0000000000000000e+00  0.0000000000000000e+00 
 4.8199301658396942e+00  2.9527772931441409e-01  0.0000000000000000e+00  2.9527772931441409e-01  1.3957525901511666e-01  0.0000000000000000e+00 
 0.0000000000000000e+00  0.0000000000000000e+00  0.0000000000000000e+00  4.8994304351621691e+00  2.3253655627902167e-01  0.0000000000000000e+00 
 2.3253655627902167e-01  1.2202553111332493e-01  0.0000000000000000e+00  0.0000000000000000e+00  0.0000000000000000e+00  0.0000000000000000e+00 
 5.2907973106637585e-02 -1.2301771698530277e-01  0.0000000000000000e+00 -1.2301771698530277e-01 -2.3055870917556381e-01  0.0000000000000000e+00 
 0.0000000000000000e+00  0.0000000000000000e+00  0.0000000000000000e+00  8.5109222836078968e-02 -1.4857507682446652e-01  0.0000000000000000e+00 
-1.4857507682446652e-01 -2.0761225574892422e-01  0.0000000000000000e+00  0.0000000000000000e+00  0.0000000000000000e+00  0.0000000000000000e+00 
 5.4733538397992880e-02 -1.3676569936080979e-01  0.0000000000000000e+00 -1.3676569936080979e-01 -2.5633694837020204e-01  0.0000000000000000e+00 
 0.0000000000000000e+00  0.0000000000000000e+00  0.0000000000000000e+00  1.2100003015682281e-01 -1.7359937025759400e-01  0.0000000000000000e+00 
-1.7359937025759400e-01 -1.8625806943829487e-01  0.0000000000000000e+00  0.0000000000000000e+00  0.0000000000000000e+00  0.0000000000000000e+00 
 8.9680173272312230e-02 -1.6227703924617512e-01  0.0000000000000000e+00 -1.6227703924617512e-01 -2.3169885307962229e-01  0.0000000000000000e+00 
 0.0000000000000000e+00  0.0000000000000000e+00  0.0000000000000000e+00  5.8734081886261578e-02 -1.4952825227730673e-01  0.0000000000000000e+00 
-1.4952825227730673e-01 -2.8211502615463613e-01  0.0000000000000000e+00  0.0000000000000000e+00  0.0000000000000000e+00  0.0000000000000000e+00 
 2.0633147315934357e+00  4.6180460735897932e-02  0.0000000000000000e+00  4.6180460735897932e-02 -2.8887610064031604e-02  0.0000000000000000e+00 
 0.0000000000000000e+00  0.0000000000000000e+00  0.0000000000000000e+00  2.0547818161167863e+00  6.3485647306985901e-02  0.0000000000000000e+00 
 6.3485647306985901e-02 -2.1976666116987991e-02  0.0000000000000000e+00  0.0000000000000000e+00  0.0000000000000000e+00  0.0000000000000000e+00 
 1.9384024206175410e+00  8.7244819954489433e-02  0.0000000000000000e+00  8.7244819954489433e-02 -5.2047471769937258e-02  0.0000000000000000e+00 
 0.0000000000000000e+00  0.0000000000000000e+00  0.0000000000000000e+00  2.0400608256996686e+00  7.5884270586009120e-02  0.0000000000000000e+00 
 7.5884270586009120e-02 -1.6156671507119899e-02  0.0000000000000000e+00  0.0000000000000000e+00  0.0000000000000000e+00  0.0000000000000000e+00 
 1.9235155502280619e+00  1.0753757350922469e-01  0.0000000000000000e+00  1.0753757350922469e-01 -4.0926362665443139e-02  0.0000000000000000e+00 
 0.0000000000000000e+00  0.0000000000000000e+00  0.0000000000000000e+00  1.8185715277475312e+00  1.3517010662196069e-01  0.0000000000000000e+00 
 1.3517010662196069e-01 -7.5208383865040432e-02  0.0000000000000000e+00  0.0000000000000000e+00  0.0000000000000000e+00  0.0000000000000000e+00 
 2.7671212178248159e+00 -4.3538539193033798e-01  0.0000000000000000e+00 -4.3538539193033798e-01  2.0265692276548400e-01  0.0000000000000000e+00 
 0.0000000000000000e+00  0.0000000000000000e+00  0.0000000000000000e+00  2.7045560295340918e+00 -2.9217125308600822e-01  0.0000000000000000e+00 
-2.9217125308600822e-01  1.5158355884415337e-01  0.0000000000000000e+00  0.0000000000000000e+00  0.0000000000000000e+00  0.0000000000000000e+00 
 2.8756869497310427e+00 -3.6449752088685977e-01  0.0000000000000000e+00 -3.6449752088685977e-01  1.9916103640667512e-01  0.0000000000000000e+00 
 0.0000000000000000e+00  0.0000000000000000e+00  0.0000000000000000e+00  2.6409187250622854e+00 -1.7198770496740437e-01  0.0000000000000000e+00 
-1.7198770496740437e-01  1.0918028076213411e-01  0.0000000000000000e+00  0.0000000000000000e+00  0.0000000000000000e+00  0.0000000000000000e+00 
 2.7879896510697897e+00 -2.2937356482924198e-01  0.0000000000000000e+00 -2.2937356482924198e-01  1.5735701447161685e-01  0.0000000000000000e+00 
 0.0000000000000000e+00  0.0000000000000000e+00  0.0000000000000000e+00  2.9567550639760722e+00 -2.9019337646657251e-01  0.0000000000000000e+00 
-2.9019337646657251e-01  2.0045617434849755e-01  0.0000000000000000e+00  0.0000000000000000e+00  0.0000000000000000e+00  0.0000000000000000e+00 
 1.2707113850478651e+00  3.0588439954134583e-01  0.0000000000000000e+00  3.0588439954134583e-01 -1.7918871271489792e-01  0.0000000000000000e+00 
 0.0000000000000000e+00  0.0000000000000000e+00  0.0000000000000000e+00  1.1660010883467302e+00  3.2743176732531409e-01  0.0000000000000000e+00 
 3.2743176732531409e-01 -1.9426476350318636e-01  0.0000000000000000e+00  0.0000000000000000e+00  0.0000000000000000e+00  0.0000000000000000e+00 
 1.2350568944385663e+00  3.0915801872168713e-01  0.0000000000000000e+00  3.0915801872168713e-01 -2.0580421685505515e-01  0.0000000000000000e+00 
 0.0000000000000000e+00  0.0000000000000000e+00  0.0000000000000000e+00  1.0560737027005860e+00  3.4449472943995418e-01  0.0000000000000000e+00 
 3.4449472943995418e-01 -2.0742611429933616e-01  0.0000000000000000e+00  0.0000000000000000e+00  0.0000000000000000e+00  0.0000000000000000e+00 
 1.1252509914127073e+00  3.2997351970341882e-01  0.0000000000000000e+00  3.2997351970341882e-01 -2.2165115550695955e-01  0.0000000000000000e+00 
 0.0000000000000000e+00  0.0000000000000000e+00  0.0000000000000000e+00  1.1967161440536891e+00  3.1185375106716978e-01  0.0000000000000000e+00 
 3.1185375106716978e-01 -2.3347310303241495e-01  0.0000000000000000e+00  0.0000000000000000e+00  0.0000000000000000e+00  0.0000000000000000e+00 
 9.4077823562968776e-01  4.9474685879640634e-01  0.0000000000000000e+00  4.9474685879640634e-01  2.6053438717120703e-01  0.0000000000000000e+00 
 0.0000000000000000e+00  0.0000000000000000e+00  0.0000000000000000e+00  1.1108735962121454e+00  4.7795566378147569e-01  0.0000000000000000e+00 
 4.7795566378147569e-01  1.8634700374502169e-01  0.0000000000000000e+00  0.0000000000000000e+00  0.0000000000000000e+00  0.0000000000000000e+00 
 9.9350892116051970e-01  4.3483790107377601e-01  0.0000000000000000e+00  4.3483790107377601e-01  1.5538336028572461e-01  0.0000000000000000e+00 
 0.0000000000000000e+00  0.0000000000000000e+00  0.0000000000000000e+00  1.2628414740985650e+00  4.5168847738196732e-01  0.0000000000000000e+00 
 4.5168847738196732e-01  1.1994557341088005e-01  0.0000000000000000e+00  0.0000000000000000e+00  0.0000000000000000e+00  0.0000000000000000e+00 
 1.1476604593537416e+00  4.2001378213927670e-01  0.0000000000000000e+00  4.2001378213927670e-01  9.4068035140234735e-02  0.0000000000000000e+00 
 0.0000000000000000e+00  0.0000000000000000e+00  0.0000000000000000e+00  1.0405660255266274e+00  3.8596172437763182e-01  0.0000000000000000e+00 
 3.8596172437763182e-01  6.3746394365268369e-02  0.0000000000000000e+00  0.0000000000000000e+00  0.0000000000000000e+00  0.0000000000000000e+00 
 2.0249895282785708e+00 -1.2243865136084921e-01  0.0000000000000000e+00 -1.2243865136084921e-01 -9.1173621338905914e-02  0.0000000000000000e+00 
 0.0000000000000000e+00  0.0000000000000000e+00  0.0000000000000000e+00  2.0582648666125527e+00 -8.4332742869689295e-02  0.0000000000000000e+00 
-8.4332742869689295e-02 -6.6373621885448611e-02  0.0000000000000000e+00  0.0000000000000000e+00  0.0000000000000000e+00  0.0000000000000000e+00 
 2.0001073456193037e+00 -9.4966465456030005e-02  0.0000000000000000e+00 -9.4966465456030005e-02 -1.0964866780782390e-01  0.0000000000000000e+00 
 0.0000000000000000e+00  0.0000000000000000e+00  0.0000000000000000e+00  2.1059746451215271e+00 -4.9176760187956477e-02  0.0000000000000000e+00 
-4.9176760187956477e-02 -4.3593118205525701e-02  0.0000000000000000e+00  0.0000000000000000e+00  0.0000000000000000e+00  0.0000000000000000e+00 
 2.0274244482881154e+00 -6.1257987238445603e-02  0.0000000000000000e+00 -6.1257987238445603e-02 -8.2076056726334307e-02  0.0000000000000000e+00 
 0.0000000000000000e+00  0.0000000000000000e+00  0.0000000000000000e+00  1.9661373000433600e+00 -6.2606685467184495e-02  0.0000000000000000e+00 
-6.2606685467184495e-02 -1.2717669646604340e-01  0.0000000000000000e+00  0.0000000000000000e+00  0.0000000000000000e+00  0.0000000000000000e+00 
 1.2275199112619422e+00 -3.6131303004735332e-01  0.0000000000000000e+00 -3.6131303004735332e-01 -1.0900708919287851e-01  0.0000000000000000e+00 
 0.0000000000000000e+00  0.0000000000000000e+00  0.0000000000000000e+00  1.2982136855422755e+00 -3.4436089262452896e-01  0.0000000000000000e+00 
-3.4436089262452896e-01 -9.5907528767268435e-02  0.0000000000000000e+00  0.0000000000000000e+00  0.0000000000000000e+00  0.0000000000000000e+00 
 1.2718655439673798e+00 -3.4738086332284301e-01  0.0000000000000000e+00 -3.4738086332284301e-01 -1.2651968465220534e-01  0.0000000000000000e+00 
 0.0000000000000000e+00  0.0000000000000000e+00  0.0000000000000000e+00  1.3664347934147101e+00 -3.2554208378758548e-01  0.0000000000000000e+00 
-3.2554208378758548e-01 -8.2586432501985621e-02  0.0000000000000000e+00  0.0000000000000000e+00  0.0000000000000000e+00  0.0000000000000000e+00 
 1.3434414752822119e+00 -3.2884982479166658e-01  0.0000000000000000e+00 -3.2884982479166658e-01 -1.1082337853131974e-01  0.0000000000000000e+00 
 0.0000000000000000e+00  0.0000000000000000e+00  0.0000000000000000e+00  1.3186262106792219e+00 -3.3042987421866143e-01  0.0000000000000000e+00 
-3.3042987421866143e-01 -1.4317953199869038e-01  0.0000000000000000e+00  0.0000000000000000e+00  0.0000000000000000e+00  0.0000000000000000e+00 
 5.1839417713176461e-01  2.9544845051905883e-01  0.0000000000000000e+00  2.9544845051905883e-01 -4.0050119285097063e-01  0.0000000000000000e+00 
 0.0000000000000000e+00  0.0000000000000000e+00  0.0000000000000000e+00  6.1244677839293349e-01  3.1605449162920568e-01  0.0000000000000000e+00 
 3.1605449162920568e-01 -3.7021867499305144e-01  0.0000000000000000e+00  0.0000000000000000e+00  0.0000000000000000e+00  0.0000000000000000e+00 
 5.4671804980412930e-01  3.1466699886404120e-01  0.0000000000000000e+00  3.1466699886404120e-01 -3.6242120382691079e-01  0.0000000000000000e+00 
 0.0000000000000000e+00  0.0000000000000000e+00  0.0000000000000000e+00  7.0464094581530778e-01  3.3011250611973908e-01  0.0000000000000000e+00 
 3.3011250611973908e-01 -3.4422656547733382e-01  0.0000000000000000e+00  0.0000000000000000e+00  0.0000000000000000e+00  0.0000000000000000e+00 
 6.3590795493212227e-01  3.3104918814683232e-01  0.0000000000000000e+00  3.3104918814683232e-01 -3.3530605797147989e-01  0.0000000000000000e+00 
 0.0000000000000000e+00  0.0000000000000000e+00  0.0000000000000000e+00  5.7184713206204429e-01  3.2959140933313441e-01  0.0000000000000000e+00 
 3.2959140933313441e-01 -3.2413992360166560e-01  0.0000000000000000e+00  0.0000000000000000e+00  0.0000000000000000e+00  0.0000000000000000e+00 
 1.9286664936069129e+00  7.7999276651892019e-02  0.0000000000000000e+00  7.7999276651892019e-02 -2.2841950524954749e-01  0.0000000000000000e+00 
 0.0000000000000000e+00  0.0000000000000000e+00  0.0000000000000000e+00  1.8553954873887024e+00  1.3917888433048984e-02  0.0000000000000000e+00 
 1.3917888433048984e-02 -2.6276337018661472e-01  0.0000000000000000e+00  0.0000000000000000e+00  0.0000000000000000e+00  0.0000000000000000e+00 
 1.8705657357759915e+00  3.3242070376571911e-02  0.0000000000000000e+00  3.3242070376571911e-02 -2.4317575135970254e-01  0.0000000000000000e+00 
 0.0000000000000000e+00  0.0000000000000000e+00  0.0000000000000000e+00  1.7619411208228930e+00 -5.0965287579925335e-02  0.0000000000000000e+00 
-5.0965287579925335e-02 -2.9337273300897193e-01  0.0000000000000000e+00  0.0000000000000000e+00  0.0000000000000000e+00  0.0000000000000000e+00 
 1.7894614996558487e+00 -2.8917661677982796e-02  0.0000000000000000e+00 -2.8917661677982796e-02 -2.7466770876590824e-01  0.0000000000000000e+00 
 0.0000000000000000e+00  0.0000000000000000e+00  0.0000000000000000e+00  1.8128720226518906e+00 -1.2399906080861294e-02  0.0000000000000000e+00 
-1.2399906080861294e-02 -2.5096616027502550e-01  0.0000000000000000e+00  0.0000000000000000e+00  0.0000000000000000e+00  0.0000000000000000e+00 
 2.0215717478275930e+00  1.4832210543689806e-01  0.0000000000000000e+00  1.4832210543689806e-01 -9.4352025442307585e-02  0.0000000000000000e+00 
 0.0000000000000000e+00  0.0000000000000000e+00  0.0000000000000000e+00  2.0234982898807008e+00  1.8366446607786779e-01  0.0000000000000000e+00 
 1.8366446607786779e-01 -6.8569905708015771e-02  0.0000000000000000e+00  0.0000000000000000e+00  0.0000000000000000e+00  0.0000000000000000e+00 
 2.0128144118772151e+00  1.7575511147384540e-01  0.0000000000000000e+00  1.7575511147384540e-01 -1.0970910456924933e-01  0.0000000000000000e+00 
 0.0000000000000000e+00  0.0000000000000000e+00  0.0000000000000000e+00  1.9924776849787631e+00  2.0129435441807156e-01  0.0000000000000000e+00 
 2.0129435441807156e-01 -4.3981851716136423e-02  0.0000000000000000e+00  0.0000000000000000e+00  0.0000000000000000e+00  0.0000000000000000e+00 
 2.0116359670801915e+00  2.1510188571900724e-01  0.0000000000000000e+00  2.1510188571900724e-01 -8.0040062709257273e-02  0.0000000000000000e+00 
 0.0000000000000000e+00  0.0000000000000000e+00  0.0000000000000000e+00  2.0144750100005928e+00  2.0019014518860875e-01  0.0000000000000000e+00 
 2.0019014518860875e-01 -1.2222705673832117e-01  0.0000000000000000e+00  0.0000000000000000e+00  0.0000000000000000e+00  0.0000000000000000e+00 
 1.1788783883835363e+00  2.0925039250749143e-02  0.0000000000000000e+00  2.0925039250749143e-02  1.4607923069365242e-01  0.0000000000000000e+00 
 0.0000000000000000e+00  0.0000000000000000e+00  0.0000000000000000e+00  1.2215947123309299e+00  9.5805668235338891e-03  0.0000000000000000e+00 
 9.5805668235338891e-03  1.1656275968438223e-01  0.0000000000000000e+00  0.0000000000000000e+00  0.0000000000000000e+00  0.0000000000000000e+00 
 1.1779792969253104e+00 -6.8409150506084293e-03  0.0000000000000000e+00 -6.8409150506084293e-03  1.7543580922733426e-01  0.0000000000000000e+00 
 0.0000000000000000e+00  0.0000000000000000e+00  0.0000000000000000e+00  1.2586027312077537e+00  1.2500923957211886e-03  0.0000000000000000e+00 
 1.2500923957211886e-03  8.2798965356191412e-02  0.0000000000000000e+00  0.0000000000000000e+00  0.0000000000000000e+00  0.0000000000000000e+00 
 1.2210376227138651e+00 -2.3339113586322405e-02  0.0000000000000000e+00 -2.3339113586322405e-02  1.4635788825617660e-01  0.0000000000000000e+00 
 0.0000000000000000e+00  0.0000000000000000e+00  0.0000000000000000e+00  1.1712183049068550e+00 -3.2387634539819320e-02  0.0000000000000000e+00 
-3.2387634539819320e-02  2.1908216649501810e-01  0.0000000000000000e+00  0.0000000000000000e+00  0.0000000000000000e+00  0.0000000000000000e+00 
 5.6169933686855833e-01  3.0579158063642792e-01  0.0000000000000000e+00  3.0579158063642792e-01 -4.5487390438233904e-01  0.0000000000000000e+00 
 0.0000000000000000e+00  0.0000000000000000e+00  0.0000000000000000e+00  6.1309265445957217e-01  3.0691234469913381e-01  0.0000000000000000e+00 
 3.0691234469913381e-01 -4.5115142953099624e-01  0.0000000000000000e+00  0.0000000000000000e+00  0.0000000000000000e+00  0.0000000000000000e+00 
 6.1526205000267342e-01  3.2669878368579869e-01  0.0000000000000000e+00  3.2669878368579869e-01 -4.2620134842855523e-01  0.0000000000000000e+00 
 0.0000000000000000e+00  0.0000000000000000e+00  0.0000000000000000e+00  6.6729434755568906e-01  3.0718614397702698e-01  0.0000000000000000e+00 
 3.0718614397702698e-01 -4.4636538693949113e-01  0.0000000000000000e+00  0.0000000000000000e+00  0.0000000000000000e+00  0.0000000000000000e+00 
 6.6694349519704588e-01  3.2657584179858007e-01  0.0000000000000000e+00  3.2657584179858007e-01 -4.2515371120776735e-01  0.0000000000000000e+00 
 0.0000000000000000e+00  0.0000000000000000e+00  0.0000000000000000e+00  6.6517170279679561e-01  3.4342271326316087e-01  0.0000000000000000e+00 
 3.4342271326316087e-01 -3.9880542618556608e-01  0.0000000000000000e+00  0.0000000000000000e+00  0.0000000000000000e+00  0.0000000000000000e+00 
 1.9980365051103544e+00 -2.6346924961191953e-01  0.0000000000000000e+00 -2.6346924961191953e-01 -7.8138448995940163e-02  0.0000000000000000e+00 
 0.0000000000000000e+00  0.0000000000000000e+00  0.0000000000000000e+00  1.9994828062471048e+00 -2.2570939238624677e-01  0.0000000000000000e+00 
-2.2570939238624677e-01 -9.3548510872895396e-02  0.0000000000000000e+00  0.0000000000000000e+00  0.0000000000000000e+00  0.0000000000000000e+00 
 2.0202521055136216e+00 -2.3533910427221583e-01  0.0000000000000000e+00 -2.3533910427221583e-01 -1.1482275837172197e-01  0.0000000000000000e+00 
 0.0000000000000000e+00  0.0000000000000000e+00  0.0000000000000000e+00  1.9992852954142784e+00 -1.8194320177196252e-01  0.0000000000000000e+00 
-1.8194320177196252e-01 -1.0208576017510294e-01  0.0000000000000000e+00  0.0000000000000000e+00  0.0000000000000000e+00  0.0000000000000000e+00 
 2.0003330302130329e+00 -1.9288766892507561e-01  0.0000000000000000e+00 -1.9288766892507561e-01 -1.3004378565466512e-01  0.0000000000000000e+00 
 0.0000000000000000e+00  0.0000000000000000e+00  0.0000000000000000e+00  2.0129137468559044e+00 -1.9057044908297574e-01  0.0000000000000000e+00 
-1.9057044908297574e-01 -1.5443196298676201e-01  0.0000000000000000e+00  0.0000000000000000e+00  0.0000000000000000e+00  0.0000000000000000e+00 
 9.2886918789800499e-01 -2.7899674410657815e-01  0.0000000000000000e+00 -2.7899674410657815e-01 -3.9481491420158971e-01  0.0000000000000000e+00 
 0.0000000000000000e+00  0.0000000000000000e+00  0.0000000000000000e+00  9.2179247556503796e-01 -2.6504795502778783e-01  0.0000000000000000e+00 
-2.6504795502778783e-01 -3.9901674647712443e-01  0.0000000000000000e+00  0.0000000000000000e+00  0.0000000000000000e+00  0.0000000000000000e+00 
 8.5874371207041789e-01 -2.7274827736199009e-01  0.0000000000000000e+00 -2.7274827736199009e-01 -4.0580177302258780e-01  0.0000000000000000e+00 
 0.0000000000000000e+00  0.0000000000000000e+00  0.0000000000000000e+00  9.1127599145170579e-01 -2.5156673565509152e-01  0.0000000000000000e+00 
-2.5156673565509152e-01 -3.9454094879661905e-01  0.0000000000000000e+00  0.0000000000000000e+00  0.0000000000000000e+00  0.0000000000000000e+00 
 8.4555027142417116e-01 -2.5684955486641964e-01  0.0000000000000000e+00 -2.5684955486641964e-01 -4.0741617750319736e-01  0.0000000000000000e+00 
 0.0000000000000000e+00  0.0000000000000000e+00  0.0000000000000000e+00  7.8463141843532147e-01 -2.6235226668269895e-01  0.0000000000000000e+00 
-2.6235226668269895e-01 -4.1727986859551014e-01  0.0000000000000000e+00  0.0000000000000000e+00  0.0000000000000000e+00  0.0000000000000000e+00 
 2.0062914977039270e+00  1.7750367266465503e-01  0.0000000000000000e+00  1.7750367266465503e-01 -5.9657160452949033e-02  0.0000000000000000e+00 
 0.0000000000000000e+00  0.0000000000000000e+00  0.0000000000000000e+00  2.0427159598327114e+00  1.1371406299203532e-01  0.0000000000000000e+00 
 1.1371406299203532e-01 -1.7472481910801516e-02  0.0000000000000000e+00  0.0000000000000000e+00  0.0000000000000000e+00  0.0000000000000000e+00 
 1.9816259346532945e+00  1.9442228736626135e-01  0.0000000000000000e+00  1.9442228736626135e-01 -4.5723571999651373e-02  0.0000000000000000e+00 
 0.0000000000000000e+00  0.0000000000000000e+00  0.0000000000000000e+00  2.1366384648043812e+00 -9.2627224674266540e-07  0.0000000000000000e+00 
-9.2627224674266540e-07 -3.1581179546622109e-07  0.0000000000000000e+00  0.0000000000000000e+00  0.0000000000000000e+00  0.0000000000000000e+00 
 1.9962227191267170e+00  1.0809696258975053e-01  0.0000000000000000e+00  1.0809696258975053e-01 -1.0421366669113256e-02  0.0000000000000000e+00 
 0.0000000000000000e+00  0.0000000000000000e+00  0.0000000000000000e+00  1.9395767172442058e+00  2.0285610155686418e-01  0.0000000000000000e+00 
 2.0285610155686418e-01 -3.2591834288751655e-02  0.0000000000000000e+00  0.0000000000000000e+00  0.0000000000000000e+00  0.0000000000000000e+00 
 1.6552633878200269e+00 -3.7571619780768434e-01  0.0000000000000000e+00 -3.7571619780768434e-01  9.5777579216682254e-03  0.0000000000000000e+00 
 0.0000000000000000e+00  0.0000000000000000e+00  0.0000000000000000e+00  1.7838429791545831e+00 -2.9832236356372299e-01  0.0000000000000000e+00 
-2.9832236356372299e-01 -5.4330159460908238e-02  0.0000000000000000e+00  0.0000000000000000e+00  0.0000000000000000e+00  0.0000000000000000e+00 
 1.7556703247488763e+00 -3.7859311550588393e-01  0.0000000000000000e+00 -3.7859311550588393e-01  2.4271693007331278e-02  0.0000000000000000e+00 
 0.0000000000000000e+00  0.0000000000000000e+00  0.0000000000000000e+00  1.8822823891753151e+00 -2.2132099339017783e-01  0.0000000000000000e+00 
-2.2132099339017783e-01 -1.0222125182046517e-01  0.0000000000000000e+00  0.0000000000000000e+00  0.0000000000000000e+00  0.0000000000000000e+00 
 1.8724476780583845e+00 -2.9185514214007752e-01  0.0000000000000000e+00 -2.9185514214007752e-01 -3.9997865522629274e-02  0.0000000000000000e+00 
 0.0000000000000000e+00  0.0000000000000000e+00  0.0000000000000000e+00  1.8571971866111019e+00 -3.7766280749789582e-01  0.0000000000000000e+00 
-3.7766280749789582e-01  3.7051548456262871e-02  0.0000000000000000e+00  0.0000000000000000e+00  0.0000000000000000e+00  0.0000000000000000e+00 
 1.3884740616201572e+00 -5.0763128289527126e-01  0.0000000000000000e+00 -5.0763128289527126e-01  1.7120485166902003e-01  0.0000000000000000e+00 
 0.0000000000000000e+00  0.0000000000000000e+00  0.0000000000000000e+00  1.3129713332475144e+00 -5.7481554259333045e-01  0.0000000000000000e+00 
-5.7481554259333045e-01  2.6419439782678372e-01  0.0000000000000000e+00  0.0000000000000000e+00  0.0000000000000000e+00  0.0000000000000000e+00 
 1.2243688403484110e+00 -5.4436677968671299e-01  0.0000000000000000e+00 -5.4436677968671299e-01  2.4502866016731592e-01  0.0000000000000000e+00 
 0.0000000000000000e+00  0.0000000000000000e+00  0.0000000000000000e+00  1.2247689901981300e+00 -6.4999741509563258e-01  0.0000000000000000e+00 
-6.4999741509563258e-01  3.7156534482580095e-01  0.0000000000000000e+00  0.0000000000000000e+00  0.0000000000000000e+00  0.0000000000000000e+00 
 1.1287305196134321e+00 -6.1075531018588713e-01  0.0000000000000000e+00 -6.1075531018588713e-01  3.5162587918555360e-01  0.0000000000000000e+00 
 0.0000000000000000e+00  0.0000000000000000e+00  0.0000000000000000e+00  1.0385777695299543e+00 -5.7012127135157697e-01  0.0000000000000000e+00 
-5.7012127135157697e-01  3.2807545446202585e-01  0.0000000000000000e+00  0.0000000000000000e+00  0.0000000000000000e+00  0.0000000000000000e+00 
 1.5447706958642200e+00 -2.1970670130370965e-01  0.0000000000000000e+00 -2.1970670130370965e-01 -3.0894139835374657e-06  0.0000000000000000e+00 
 0.0000000000000000e+00  0.0000000000000000e+00  0.0000000000000000e+00  1.6110243292187083e+00 -1.7820509125759343e-01  0.0000000000000000e+00 
-1.7820509125759343e-01  1.1549372557913180e-04  0.0000000000000000e+00  0.0000000000000000e+00  0.0000000000000000e+00  0.0000000000000000e+00 
 1.6420319347633918e+00 -1.9435268594847432e-01  0.0000000000000000e+00 -1.9435268594847432e-01 -5.3285163235913310e-03  0.0000000000000000e+00 
 0.0000000000000000e+00  0.0000000000000000e+00  0.0000000000000000e+00  1.6770908743613990e+00 -1.3079385301470334e-01  0.0000000000000000e+00 
-1.3079385301470334e-01  1.6675488205001503e-04  0.0000000000000000e+00  0.0000000000000000e+00  0.0000000000000000e+00  0.0000000000000000e+00 
 1.7163388402769022e+00 -1.4987380165636882e-01  0.0000000000000000e+00 -1.4987380165636882e-01 -2.8272505402535844e-03  0.0000000000000000e+00 