<VTKFile type="UnstructuredGrid" version="1.0" byte_order="LittleEndian" header_type="UInt64">
<UnstructuredGrid>
<Piece NumberOfPoints="7326" NumberOfCells="4884">
<PointData>
<DataArray type="Float64" Name="σ" NumberOfComponents="9" format="ascii">
 8.9429384370264875e-01  1.0034789370922777e-01  0.0000000000000000e+00  1.0034789370922777e-01  2.8537420509081374e-01  0.0000000000000000e+00 
 0.0000000000000000e+00  0.0000000000000000e+00  0.0000000000000000e+00  8.8167505688407832e-01  7.9734166554240649e-02  0.0000000000000000e+00 
 7.9734166554240649e-02  2.8857361210438731e-01  0.0000000000000000e+00  0.0000000000000000e+00  0.0000000000000000e+00  0.0000000000000000e+00 
 8.7044289424376975e-01  1.0245278942498760e-01  0.0000000000000000e+00  1.0245278942498760e-01  2.7477295014945308e-01  0.0000000000000000e+00 
 0.0000000000000000e+00  0.0000000000000000e+00  0.0000000000000000e+00  8.6997097931687273e-01  5.7006224183883264e-02  0.0000000000000000e+00 
 5.7006224183883264e-02  2.8999965867336908e-01  0.0000000000000000e+00  0.0000000000000000e+00  0.0000000000000000e+00  0.0000000000000000e+00 
 8.5645588013189777e-01  7.9688924064162808e-02  0.0000000000000000e+00  7.9688924064162808e-02  2.7776755428810929e-01  0.0000000000000000e+00 
 0.0000000000000000e+00  0.0000000000000000e+00  0.0000000000000000e+00  8.4446744917859995e-01  1.0349490714460224e-01  0.0000000000000000e+00 
 1.0349490714460224e-01  2.6538666906158864e-01  0.0000000000000000e+00  0.0000000000000000e+00  0.0000000000000000e+00  0.0000000000000000e+00 
 5.1727898189615396e-01  1.9039564230544184e-01  0.0000000000000000e+00  1.9039564230544184e-01  1.8437396905462353e-01  0.0000000000000000e+00 
 0.0000000000000000e+00  0.0000000000000000e+00  0.0000000000000000e+00  5.0552722640808645e-01  1.6537648259508023e-01  0.0000000000000000e+00 
 1.6537648259508023e-01  2.0115359801572139e-01  0.0000000000000000e+00  0.0000000000000000e+00  0.0000000000000000e+00  0.0000000000000000e+00 
 4.7652261232703713e-01  1.7084605209464399e-01  0.0000000000000000e+00  1.7084605209464399e-01  1.8464396807143513e-01  0.0000000000000000e+00 
 0.0000000000000000e+00  0.0000000000000000e+00  0.0000000000000000e+00  4.9802679634709601e-01  1.4029548857728535e-01  0.0000000000000000e+00 
 1.4029548857728535e-01  2.1643722096023851e-01  0.0000000000000000e+00  0.0000000000000000e+00  0.0000000000000000e+00  0.0000000000000000e+00 
 4.6888737511046447e-01  1.4479228185500820e-01  0.0000000000000000e+00  1.4479228185500820e-01  2.0123847531283562e-01  0.0000000000000000e+00 
 0.0000000000000000e+00  0.0000000000000000e+00  0.0000000000000000e+00  4.3824579531594932e-01  1.4895103982215488e-01  0.0000000000000000e+00 
 1.4895103982215488e-01  1.8345456849268449e-01  0.0000000000000000e+00  0.0000000000000000e+00  0.0000000000000000e+00  0.0000000000000000e+00 
 1.0739674342884988e+00 -9.2521430712151548e-02  0.0000000000000000e+00 -9.2521430712151548e-02  1.6245246499802621e-01  0.0000000000000000e+00 
 0.0000000000000000e+00  0.0000000000000000e+00  0.0000000000000000e+00  1.0793675294952858e+00 -1.1345659933254616e-01  0.0000000000000000e+00 
-1.1345659933254616e-01  1.4967949596642144e-01  0.0000000000000000e+00  0.0000000000000000e+00  0.0000000000000000e+00  0.0000000000000000e+00 
 1.0372589622891806e+00 -1.0604148754598201e-01  0.0000000000000000e+00 -1.0604148754598201e-01  1.7305765396803852e-01  0.0000000000000000e+00 
 0.0000000000000000e+00  0.0000000000000000e+00  0.0000000000000000e+00  1.0840352988641941e+00 -1.3504739445588154e-01  0.0000000000000000e+00 
-1.3504739445588154e-01  1.3914920801682343e-01  0.0000000000000000e+00  0.0000000000000000e+00  0.0000000000000000e+00  0.0000000000000000e+00 
 1.0404663713500564e+00 -1.2664699619636605e-01  0.0000000000000000e+00 -1.2664699619636605e-01  1.6220423261970587e-01  0.0000000000000000e+00 
 0.0000000000000000e+00  0.0000000000000000e+00  0.0000000000000000e+00  9.9865905262068233e-01 -1.1739793647802665e-01  0.0000000000000000e+00 
-1.1739793647802665e-01  1.8444071809466142e-01  0.0000000000000000e+00  0.0000000000000000e+00  0.0000000000000000e+00  0.0000000000000000e+00 
 6.7160752139471291e-01  3.5739780979291763e-01  0.0000000000000000e+00  3.5739780979291763e-01 -9.2070858153751531e-02  0.0000000000000000e+00 
 0.0000000000000000e+00  0.0000000000000000e+00  0.0000000000000000e+00  6.2023093336104029e-01  3.4742177570798211e-01  0.0000000000000000e+00 
 3.4742177570798211e-01 -6.8040330970915247e-02  0.0000000000000000e+00  0.0000000000000000e+00  0.0000000000000000e+00  0.0000000000000000e+00 
 5.9293055023334940e-01  3.4852734862659762e-01  0.0000000000000000e+00  3.4852734862659762e-01 -1.0805272852914545e-01  0.0000000000000000e+00 
 0.0000000000000000e+00  0.0000000000000000e+00  0.0000000000000000e+00  5.7387365537420987e-01  3.3449023342561318e-01  0.0000000000000000e+00 
 3.3449023342561318e-01 -4.3419673485361361e-02  0.0000000000000000e+00  0.0000000000000000e+00  0.0000000000000000e+00  0.0000000000000000e+00 
 5.4422716071967348e-01  3.3621395658627196e-01  0.0000000000000000e+00  3.3621395658627196e-01 -8.2772112376790885e-02  0.0000000000000000e+00 
 0.0000000000000000e+00  0.0000000000000000e+00  0.0000000000000000e+00  5.1303277308084783e-01  3.3550332388821308e-01  0.0000000000000000e+00 
 3.3550332388821308e-01 -1.2664530072712618e-01  0.0000000000000000e+00  0.0000000000000000e+00  0.0000000000000000e+00  0.0000000000000000e+00 
 7.9302996733252973e-01  3.6752602907439297e-01  0.0000000000000000e+00  3.6752602907439297e-01 -1.3442659874856114e-01  0.0000000000000000e+00 
 0.0000000000000000e+00  0.0000000000000000e+00  0.0000000000000000e+00  7.3003634682504526e-01  3.6422364513527600e-01  0.0000000000000000e+00 
 3.6422364513527600e-01 -1.1387712289612810e-01  0.0000000000000000e+00  0.0000000000000000e+00  0.0000000000000000e+00  0.0000000000000000e+00 
 7.1640069229965286e-01  3.6428530208945076e-01  0.0000000000000000e+00  3.6428530208945076e-01 -1.4901208470010921e-01  0.0000000000000000e+00 
 0.0000000000000000e+00  0.0000000000000000e+00  0.0000000000000000e+00  6.7160752139473623e-01  3.5739780979293073e-01  0.0000000000000000e+00 
 3.5739780979293073e-01 -9.2070858153761287e-02  0.0000000000000000e+00  0.0000000000000000e+00  0.0000000000000000e+00  0.0000000000000000e+00 
 6.5505777682261279e-01  3.5838950468926850e-01  0.0000000000000000e+00  3.5838950468926850e-01 -1.2736510268009474e-01  0.0000000000000000e+00 
 0.0000000000000000e+00  0.0000000000000000e+00  0.0000000000000000e+00  6.3783346767231996e-01  3.5742415056794302e-01  0.0000000000000000e+00 
 3.5742415056794302e-01 -1.6523385117282266e-01  0.0000000000000000e+00  0.0000000000000000e+00  0.0000000000000000e+00  0.0000000000000000e+00 
 5.9473857110225903e-01  2.7608436870577086e-01  0.0000000000000000e+00  2.7608436870577086e-01  1.1020014091997438e-01  0.0000000000000000e+00 
 0.0000000000000000e+00  0.0000000000000000e+00  0.0000000000000000e+00  6.5012314276958838e-01  2.8685821638970821e-01  0.0000000000000000e+00 
 2.8685821638970821e-01  1.1053865459598781e-01  0.0000000000000000e+00  0.0000000000000000e+00  0.0000000000000000e+00  0.0000000000000000e+00 
 6.1710428309229082e-01  2.6702810700689183e-01  0.0000000000000000e+00  2.6702810700689183e-01  1.3063826389655683e-01  0.0000000000000000e+00 
 0.0000000000000000e+00  0.0000000000000000e+00  0.0000000000000000e+00  7.0556312506279784e-01  2.9502658180115554e-01  0.0000000000000000e+00 
 2.9502658180115554e-01  1.0979052618209986e-01  0.0000000000000000e+00  0.0000000000000000e+00  0.0000000000000000e+00  0.0000000000000000e+00 
 6.6993198727588810e-01  2.7711731523514682e-01  0.0000000000000000e+00  2.7711731523514682e-01  1.2938343227665289e-01  0.0000000000000000e+00 
 0.0000000000000000e+00  0.0000000000000000e+00  0.0000000000000000e+00  6.3865426494207578e-01  2.5749959443898374e-01  0.0000000000000000e+00 
 2.5749959443898374e-01  1.4842494265303674e-01  0.0000000000000000e+00  0.0000000000000000e+00  0.0000000000000000e+00  0.0000000000000000e+00 
 1.0558830315010455e+00  2.5106796272185206e-01  0.0000000000000000e+00  2.5106796272185206e-01  1.0906077523978540e-01  0.0000000000000000e+00 
 0.0000000000000000e+00  0.0000000000000000e+00  0.0000000000000000e+00  1.0328357875371457e+00  2.4316427889790701e-01  0.0000000000000000e+00 
 2.4316427889790701e-01  1.2633125646987844e-01  0.0000000000000000e+00  0.0000000000000000e+00  0.0000000000000000e+00  0.0000000000000000e+00 
 1.0297147021175275e+00  2.6095578230729422e-01  0.0000000000000000e+00  2.6095578230729422e-01  1.2339357679337114e-01  0.0000000000000000e+00 
 0.0000000000000000e+00  0.0000000000000000e+00  0.0000000000000000e+00  1.0138127484354815e+00  2.3284066635790002e-01  0.0000000000000000e+00 
 2.3284066635790002e-01  1.4430919298390787e-01  0.0000000000000000e+00  0.0000000000000000e+00  0.0000000000000000e+00  0.0000000000000000e+00 
 1.0085774099696045e+00  2.5030355311677027e-01  0.0000000000000000e+00  2.5030355311677027e-01  1.4091462051525458e-01  0.0000000000000000e+00 
 0.0000000000000000e+00  0.0000000000000000e+00  0.0000000000000000e+00  1.0012324682721208e+00  2.6678108304829906e-01  0.0000000000000000e+00 
 2.6678108304829906e-01  1.3724950431758728e-01  0.0000000000000000e+00  0.0000000000000000e+00  0.0000000000000000e+00  0.0000000000000000e+00 
 4.9404515239898261e-01 -2.1308092835862313e-01  0.0000000000000000e+00 -2.1308092835862313e-01 -4.7850004032818694e-01  0.0000000000000000e+00 
 0.0000000000000000e+00  0.0000000000000000e+00  0.0000000000000000e+00  4.1295129975936040e-01 -1.8023394967507414e-01  0.0000000000000000e+00 
-1.8023394967507414e-01 -5.0479475030256560e-01  0.0000000000000000e+00  0.0000000000000000e+00  0.0000000000000000e+00  0.0000000000000000e+00 
 4.4392634708153461e-01 -2.0801728440310799e-01  0.0000000000000000e+00 -2.0801728440310799e-01 -4.9229078779897073e-01  0.0000000000000000e+00 
 0.0000000000000000e+00  0.0000000000000000e+00  0.0000000000000000e+00  3.3149171654613058e-01 -1.4075747221780907e-01  0.0000000000000000e+00 
-1.4075747221780907e-01 -5.3599806533393413e-01  0.0000000000000000e+00  0.0000000000000000e+00  0.0000000000000000e+00  0.0000000000000000e+00 
 3.6678081397696299e-01 -1.7410193645771113e-01  0.0000000000000000e+00 -1.7410193645771113e-01 -5.2221496194254347e-01  0.0000000000000000e+00 
 0.0000000000000000e+00  0.0000000000000000e+00  0.0000000000000000e+00  3.9754316446478682e-01 -2.0339333982297161e-01  0.0000000000000000e+00 
-2.0339333982297161e-01 -5.0468457475842043e-01  0.0000000000000000e+00  0.0000000000000000e+00  0.0000000000000000e+00  0.0000000000000000e+00 
 2.8852667242548014e-01 -9.2491159699684966e-03  0.0000000000000000e+00 -9.2491159699684966e-03  1.4242252873990766e-01  0.0000000000000000e+00 
 0.0000000000000000e+00  0.0000000000000000e+00  0.0000000000000000e+00  2.7889349261510443e-01 -3.7633361319916410e-02  0.0000000000000000e+00 
-3.7633361319916410e-02  1.3097563412317564e-01  0.0000000000000000e+00  0.0000000000000000e+00  0.0000000000000000e+00  0.0000000000000000e+00 
 2.5714519875963371e-01 -1.2752345939464468e-02  0.0000000000000000e+00 -1.2752345939464468e-02  1.1593859911332169e-01  0.0000000000000000e+00 
 0.0000000000000000e+00  0.0000000000000000e+00  0.0000000000000000e+00  2.7363484157570583e-01 -6.6490205330968680e-02  0.0000000000000000e+00 
-6.6490205330968680e-02  1.1819147343309998e-01  0.0000000000000000e+00  0.0000000000000000e+00  0.0000000000000000e+00  0.0000000000000000e+00 
 2.4779714333781133e-01 -4.2012827541912594e-02  0.0000000000000000e+00 -4.2012827541912594e-02  1.0299770056079692e-01  0.0000000000000000e+00 
 0.0000000000000000e+00  0.0000000000000000e+00  0.0000000000000000e+00  2.2488268942949885e-01 -1.6412717416652425e-02  0.0000000000000000e+00 
-1.6412717416652425e-02  8.5854737754687230e-02  0.0000000000000000e+00  0.0000000000000000e+00  0.0000000000000000e+00  0.0000000000000000e+00 
 1.2595599136495907e+00  1.6445515280972633e-01  0.0000000000000000e+00  1.6445515280972633e-01  5.7056992597685284e-02  0.0000000000000000e+00 
 0.0000000000000000e+00  0.0000000000000000e+00  0.0000000000000000e+00  1.2608145828581681e+00  1.4596949018238800e-01  0.0000000000000000e+00 
 1.4596949018238800e-01  5.5327370646158211e-02  0.0000000000000000e+00  0.0000000000000000e+00  0.0000000000000000e+00  0.0000000000000000e+00 
 1.2222178704318580e+00  1.6227613254285692e-01  0.0000000000000000e+00  1.6227613254285692e-01  7.1174451602029731e-02  0.0000000000000000e+00 
 0.0000000000000000e+00  0.0000000000000000e+00  0.0000000000000000e+00  1.2614397282226499e+00  1.2727198604850443e-01  0.0000000000000000e+00 
 1.2727198604850443e-01  5.3819267712298412e-02  0.0000000000000000e+00  0.0000000000000000e+00  0.0000000000000000e+00  0.0000000000000000e+00 
 1.2262531738170761e+00  1.4327856621226315e-01  0.0000000000000000e+00  1.4327856621226315e-01  6.9949903845689346e-02  0.0000000000000000e+00 
 0.0000000000000000e+00  0.0000000000000000e+00  0.0000000000000000e+00  1.1861660546188675e+00  1.5745761457174878e-01  0.0000000000000000e+00 
 1.5745761457174878e-01  8.6759715382491651e-02  0.0000000000000000e+00  0.0000000000000000e+00  0.0000000000000000e+00  0.0000000000000000e+00 
 1.3172858829346170e+00 -2.7615202395156180e-01  0.0000000000000000e+00 -2.7615202395156180e-01 -2.4162704678796396e-01  0.0000000000000000e+00 
 0.0000000000000000e+00  0.0000000000000000e+00  0.0000000000000000e+00  1.2933736761971368e+00 -2.9090533881056280e-01  0.0000000000000000e+00 
-2.9090533881056280e-01 -2.1543709794908344e-01  0.0000000000000000e+00  0.0000000000000000e+00  0.0000000000000000e+00  0.0000000000000000e+00 
 1.3864737652008610e+00 -2.6066027190430069e-01  0.0000000000000000e+00 -2.6066027190430069e-01 -2.1602623211330804e-01  0.0000000000000000e+00 
 0.0000000000000000e+00  0.0000000000000000e+00  0.0000000000000000e+00  1.2713236096905114e+00 -3.0363636344252110e-01  0.0000000000000000e+00 
-3.0363636344252110e-01 -1.8869791629229507e-01  0.0000000000000000e+00  0.0000000000000000e+00  0.0000000000000000e+00  0.0000000000000000e+00 
 1.3615557327237342e+00 -2.7627592339331442e-01  0.0000000000000000e+00 -2.7627592339331442e-01 -1.9141072423616048e-01  0.0000000000000000e+00 
 0.0000000000000000e+00  0.0000000000000000e+00  0.0000000000000000e+00  1.4508946059696874e+00 -2.4490988506071018e-01  0.0000000000000000e+00 
-2.4490988506071018e-01 -1.9028410400137194e-01  0.0000000000000000e+00  0.0000000000000000e+00  0.0000000000000000e+00  0.0000000000000000e+00 
 4.0419960222242031e+00  4.2495252778501874e-01  0.0000000000000000e+00  4.2495252778501874e-01  2.6142346497213326e-01  0.0000000000000000e+00 
 0.0000000000000000e+00  0.0000000000000000e+00  0.0000000000000000e+00  3.8169477987983926e+00  3.4305555439310970e-01  0.0000000000000000e+00 
 3.4305555439310970e-01  2.7981961717839932e-01  0.0000000000000000e+00  0.0000000000000000e+00  0.0000000000000000e+00  0.0000000000000000e+00 
 3.9805809493740210e+00  4.7103547173424548e-01  0.0000000000000000e+00  4.7103547173424548e-01  2.6413765746811546e-01  0.0000000000000000e+00 
 0.0000000000000000e+00  0.0000000000000000e+00  0.0000000000000000e+00  3.6165030084406538e+00  2.6648688024533029e-01  0.0000000000000000e+00 
 2.6648688024533029e-01  2.8762572407740966e-01  0.0000000000000000e+00  0.0000000000000000e+00  0.0000000000000000e+00  0.0000000000000000e+00 
 3.7622668034443074e+00  3.7860216600646251e-01  0.0000000000000000e+00  3.7860216600646251e-01  2.7803530728625842e-01  0.0000000000000000e+00 
 0.0000000000000000e+00  0.0000000000000000e+00  0.0000000000000000e+00  3.9074815724811081e+00  5.1387760360441870e-01  0.0000000000000000e+00 
 5.1387760360441870e-01  2.6811308831080310e-01  0.0000000000000000e+00  0.0000000000000000e+00  0.0000000000000000e+00  0.0000000000000000e+00 
 1.0038208028237436e+00 -3.3478859846806774e-01  0.0000000000000000e+00 -3.3478859846806774e-01 -2.8107741519068347e-01  0.0000000000000000e+00 
 0.0000000000000000e+00  0.0000000000000000e+00  0.0000000000000000e+00  1.0909218024980420e+00 -3.1970916234027091e-01  0.0000000000000000e+00 
-3.1970916234027091e-01 -2.8488563121351856e-01  0.0000000000000000e+00  0.0000000000000000e+00  0.0000000000000000e+00  0.0000000000000000e+00 
 1.0202725006850142e+00 -3.2379958508711304e-01  0.0000000000000000e+00 -3.2379958508711304e-01 -3.0730600999487478e-01  0.0000000000000000e+00 
 0.0000000000000000e+00  0.0000000000000000e+00  0.0000000000000000e+00  1.1789535094368984e+00 -3.0048689540839002e-01  0.0000000000000000e+00 
-3.0048689540839002e-01 -2.8648928837430554e-01  0.0000000000000000e+00  0.0000000000000000e+00  0.0000000000000000e+00  0.0000000000000000e+00 
 1.1113663219719441e+00 -3.0728239944810415e-01  0.0000000000000000e+00 -3.0728239944810415e-01 -3.0883236620247384e-01  0.0000000000000000e+00 
 0.0000000000000000e+00  0.0000000000000000e+00  0.0000000000000000e+00  1.0376441521942283e+00 -3.1135490945740518e-01  0.0000000000000000e+00 
-3.1135490945740518e-01 -3.3103753449353057e-01  0.0000000000000000e+00  0.0000000000000000e+00  0.0000000000000000e+00  0.0000000000000000e+00 
-9.9411354005406488e-02 -1.5990851201232382e-02  0.0000000000000000e+00 -1.5990851201232382e-02 -9.5479431081872812e-01  0.0000000000000000e+00 
 0.0000000000000000e+00  0.0000000000000000e+00  0.0000000000000000e+00 -1.0363052777740975e-01 -5.2944331483484571e-03  0.0000000000000000e+00 
-5.2944331483484571e-03 -9.2873216177103646e-01  0.0000000000000000e+00  0.0000000000000000e+00  0.0000000000000000e+00  0.0000000000000000e+00 
-1.0633710315890907e-01 -2.9372685189983545e-02  0.0000000000000000e+00 -2.9372685189983545e-02 -1.0152427374196096e+00  0.0000000000000000e+00 
 0.0000000000000000e+00  0.0000000000000000e+00  0.0000000000000000e+00 -1.0754501747017471e-01  3.3650991446056828e-03  0.0000000000000000e+00 
 3.3650991446056828e-03 -8.9999198403605540e-01  0.0000000000000000e+00  0.0000000000000000e+00  0.0000000000000000e+00  0.0000000000000000e+00 
-1.1029875327790724e-01 -1.6892329781175667e-02  0.0000000000000000e+00 -1.6892329781175667e-02 -9.8535727118802441e-01  0.0000000000000000e+00 
 0.0000000000000000e+00  0.0000000000000000e+00  0.0000000000000000e+00 -1.1015649873972999e-01 -3.9910675576498175e-02  0.0000000000000000e+00 
-3.9910675576498175e-02 -1.0777836283972551e+00  0.0000000000000000e+00  0.0000000000000000e+00  0.0000000000000000e+00  0.0000000000000000e+00 
 9.8902339393948024e-01  1.3437629205594984e-01  0.0000000000000000e+00  1.3437629205594984e-01  2.4314482970740484e-01  0.0000000000000000e+00 
 0.0000000000000000e+00  0.0000000000000000e+00  0.0000000000000000e+00  9.8212202965877093e-01  1.5402753557781515e-01  0.0000000000000000e+00 
 1.5402753557781515e-01  2.3456442925352222e-01  0.0000000000000000e+00  0.0000000000000000e+00  0.0000000000000000e+00  0.0000000000000000e+00 
 9.9201624514572284e-01  1.5101824790893195e-01  0.0000000000000000e+00  1.5101824790893195e-01  2.1816653428291061e-01  0.0000000000000000e+00 
 0.0000000000000000e+00  0.0000000000000000e+00  0.0000000000000000e+00  9.7313745055169820e-01  1.7145721215380916e-01  0.0000000000000000e+00 
 1.7145721215380916e-01  2.2649096421721837e-01  0.0000000000000000e+00  0.0000000000000000e+00  0.0000000000000000e+00  0.0000000000000000e+00 
 9.8618779360844699e-01  1.7054753975295811e-01  0.0000000000000000e+00  1.7054753975295811e-01  2.1155111238173893e-01  0.0000000000000000e+00 
 0.0000000000000000e+00  0.0000000000000000e+00  0.0000000000000000e+00  9.9756429713869599e-01  1.6597612506014117e-01  0.0000000000000000e+00 
 1.6597612506014117e-01  1.9494724649543785e-01  0.0000000000000000e+00  0.0000000000000000e+00  0.0000000000000000e+00  0.0000000000000000e+00 
 4.0067545280700321e+00  4.8814532268338512e-01  0.0000000000000000e+00  4.8814532268338512e-01  2.5604196811988983e-01  0.0000000000000000e+00 
 0.0000000000000000e+00  0.0000000000000000e+00  0.0000000000000000e+00  4.0794247814836693e+00  4.6014646151321953e-01  0.0000000000000000e+00 
 4.6014646151321953e-01  2.5090811185682932e-01  0.0000000000000000e+00  0.0000000000000000e+00  0.0000000000000000e+00  0.0000000000000000e+00 
 3.8523396635160072e+00  3.5735038562035243e-01  0.0000000000000000e+00  3.5735038562035243e-01  2.7170943816090509e-01  0.0000000000000000e+00 
 0.0000000000000000e+00  0.0000000000000000e+00  0.0000000000000000e+00  4.1458937969227785e+00  4.2882650563046432e-01  0.0000000000000000e+00 
 4.2882650563046432e-01  2.4596795946877517e-01  0.0000000000000000e+00  0.0000000000000000e+00  0.0000000000000000e+00  0.0000000000000000e+00 
 3.9095126818776453e+00  3.3415301709964323e-01  0.0000000000000000e+00  3.3415301709964323e-01  2.7150862807450410e-01  0.0000000000000000e+00 
 0.0000000000000000e+00  0.0000000000000000e+00  0.0000000000000000e+00  3.6986901067141464e+00  2.4950412958324053e-01  0.0000000000000000e+00 
 2.4950412958324053e-01  2.8603650276874187e-01  0.0000000000000000e+00  0.0000000000000000e+00  0.0000000000000000e+00  0.0000000000000000e+00 
 4.4498474158060047e-01  3.3308931947457682e-01  0.0000000000000000e+00  3.3308931947457682e-01 -3.7510717080486033e-01  0.0000000000000000e+00 
 0.0000000000000000e+00  0.0000000000000000e+00  0.0000000000000000e+00  4.2984125903589421e-01  3.3593289628930767e-01  0.0000000000000000e+00 
 3.3593289628930767e-01 -3.4985723426033749e-01  0.0000000000000000e+00  0.0000000000000000e+00  0.0000000000000000e+00  0.0000000000000000e+00 
 3.8713607300282216e-01  3.1702536215723981e-01  0.0000000000000000e+00  3.1702536215723981e-01 -3.9243915218707676e-01  0.0000000000000000e+00 
 0.0000000000000000e+00  0.0000000000000000e+00  0.0000000000000000e+00  4.1619786794725266e-01  3.3709936692679704e-01  0.0000000000000000e+00 
 3.3709936692679704e-01 -3.2336094995199005e-01  0.0000000000000000e+00  0.0000000000000000e+00  0.0000000000000000e+00  0.0000000000000000e+00 
 3.7455268830321309e-01  3.2005758627430975e-01  0.0000000000000000e+00  3.2005758627430975e-01 -3.6548686756291071e-01  0.0000000000000000e+00 
 0.0000000000000000e+00  0.0000000000000000e+00  0.0000000000000000e+00  3.3099370985624393e-01  2.9900585752919467e-01  0.0000000000000000e+00 
 2.9900585752919467e-01 -4.1153534449695733e-01  0.0000000000000000e+00  0.0000000000000000e+00  0.0000000000000000e+00  0.0000000000000000e+00 
 9.3401962344589839e-01 -1.3434981156319178e-02  0.0000000000000000e+00 -1.3434981156319178e-02  3.4460433836818888e-01  0.0000000000000000e+00 
 0.0000000000000000e+00  0.0000000000000000e+00  0.0000000000000000e+00  9.2585800539000462e-01 -3.6264834231852332e-02  0.0000000000000000e+00 
-3.6264834231852332e-02  3.3199014437965430e-01  0.0000000000000000e+00  0.0000000000000000e+00  0.0000000000000000e+00  0.0000000000000000e+00 
 9.1066609690690148e-01 -2.1479942348417824e-02  0.0000000000000000e+00 -2.1479942348417824e-02  3.2210648846244994e-01  0.0000000000000000e+00 
 0.0000000000000000e+00  0.0000000000000000e+00  0.0000000000000000e+00  9.1895114182156568e-01 -6.0639453684892285e-02  0.0000000000000000e+00 
-6.0639453684892285e-02  3.1791202355685866e-01  0.0000000000000000e+00  0.0000000000000000e+00  0.0000000000000000e+00  0.0000000000000000e+00 
 9.0227739688605879e-01 -4.6952428376719937e-02  0.0000000000000000e+00 -4.6952428376719937e-02  3.1078330644703411e-01  0.0000000000000000e+00 
 0.0000000000000000e+00  0.0000000000000000e+00  0.0000000000000000e+00  8.8492809678268414e-01 -3.0689418268110714e-02  0.0000000000000000e+00 
-3.0689418268110714e-02  3.0327587927218774e-01  0.0000000000000000e+00  0.0000000000000000e+00  0.0000000000000000e+00  0.0000000000000000e+00 
 9.0862483229883728e-01  2.9105516301253487e-01  0.0000000000000000e+00  2.9105516301253487e-01  1.4938396493437314e-01  0.0000000000000000e+00 
 0.0000000000000000e+00  0.0000000000000000e+00  0.0000000000000000e+00  8.8988316907965859e-01  3.0177190981719137e-01  0.0000000000000000e+00 
 3.0177190981719137e-01  1.4223525561626599e-01  0.0000000000000000e+00  0.0000000000000000e+00  0.0000000000000000e+00  0.0000000000000000e+00 
 9.2973159730415389e-01  3.0740672646100792e-01  0.0000000000000000e+00  3.0740672646100792e-01  1.3284284137168362e-01  0.0000000000000000e+00 
 0.0000000000000000e+00  0.0000000000000000e+00  0.0000000000000000e+00  8.6936475239840239e-01  3.1190693595417029e-01  0.0000000000000000e+00 
 3.1190693595417029e-01  1.3380632462569833e-01  0.0000000000000000e+00  0.0000000000000000e+00  0.0000000000000000e+00  0.0000000000000000e+00 
 9.1298747754170095e-01  3.1861096352599266e-01  0.0000000000000000e+00  3.1861096352599266e-01  1.2519984460251571e-01  0.0000000000000000e+00 
 0.0000000000000000e+00  0.0000000000000000e+00  0.0000000000000000e+00  9.5560882243550405e-01  3.2151137053886863e-01  0.0000000000000000e+00 
 3.2151137053886863e-01  1.1614058122488462e-01  0.0000000000000000e+00  0.0000000000000000e+00  0.0000000000000000e+00  0.0000000000000000e+00 
 2.2935126444820722e-01 -2.3263143426843499e-01  0.0000000000000000e+00 -2.3263143426843499e-01 -4.4052351367116910e-01  0.0000000000000000e+00 
 0.0000000000000000e+00  0.0000000000000000e+00  0.0000000000000000e+00  1.8207797539392481e-01 -2.0666319339471764e-01  0.0000000000000000e+00 
-2.0666319339471764e-01 -4.8200561056753743e-01  0.0000000000000000e+00  0.0000000000000000e+00  0.0000000000000000e+00  0.0000000000000000e+00 
 1.9189921531132034e-01 -2.2344935441353100e-01  0.0000000000000000e+00 -2.2344935441353100e-01 -4.3426155277576706e-01  0.0000000000000000e+00 
 0.0000000000000000e+00  0.0000000000000000e+00  0.0000000000000000e+00  1.3612898891843600e-01 -1.7792574339804007e-01  0.0000000000000000e+00 
-1.7792574339804007e-01 -5.2845093853918468e-01  0.0000000000000000e+00  0.0000000000000000e+00  0.0000000000000000e+00  0.0000000000000000e+00 
 1.4750309690417415e-01 -1.9822634244026610e-01  0.0000000000000000e+00 -1.9822634244026610e-01 -4.7672059420041474e-01  0.0000000000000000e+00 
 0.0000000000000000e+00  0.0000000000000000e+00  0.0000000000000000e+00  1.5820440958074450e-01 -2.1358991490182058e-01  0.0000000000000000e+00 
-2.1358991490182058e-01 -4.2549502275237688e-01  0.0000000000000000e+00  0.0000000000000000e+00  0.0000000000000000e+00  0.0000000000000000e+00 
 9.6537266284482592e-01  6.1077770506091318e-02  0.0000000000000000e+00  6.1077770506091318e-02  2.3471481518142251e-01  0.0000000000000000e+00 
 0.0000000000000000e+00  0.0000000000000000e+00  0.0000000000000000e+00  9.2784795549580890e-01  6.9144617368510949e-02  0.0000000000000000e+00 
 6.9144617368510949e-02  2.3987509179886413e-01  0.0000000000000000e+00  0.0000000000000000e+00  0.0000000000000000e+00  0.0000000000000000e+00 
 9.5952533546110075e-01  7.6217808492617070e-02  0.0000000000000000e+00  7.6217808492617070e-02  2.2387225803983987e-01  0.0000000000000000e+00 
 0.0000000000000000e+00  0.0000000000000000e+00  0.0000000000000000e+00  8.8958730691950993e-01  7.4553810108201737e-02  0.0000000000000000e+00 
 7.4553810108201737e-02  2.4738156991728155e-01  0.0000000000000000e+00  0.0000000000000000e+00  0.0000000000000000e+00  0.0000000000000000e+00 
 9.1872622729111808e-01  8.4032430027800184e-02  0.0000000000000000e+00  8.4032430027800184e-02  2.3291459744000237e-01  0.0000000000000000e+00 
 0.0000000000000000e+00  0.0000000000000000e+00  0.0000000000000000e+00  9.5084125323779956e-01  9.4216954507701248e-02  0.0000000000000000e+00 
 9.4216954507701248e-02  2.1564896014893287e-01  0.0000000000000000e+00  0.0000000000000000e+00  0.0000000000000000e+00  0.0000000000000000e+00 
-7.2136714401220700e-02  2.0637216231621644e-01  0.0000000000000000e+00  2.0637216231621644e-01 -1.6294533994541254e+00  0.0000000000000000e+00 
 0.0000000000000000e+00  0.0000000000000000e+00  0.0000000000000000e+00 -6.1600591781882361e-02  2.5041853209773607e-01  0.0000000000000000e+00 
 2.5041853209773607e-01 -1.7090564047914851e+00  0.0000000000000000e+00  0.0000000000000000e+00  0.0000000000000000e+00  0.0000000000000000e+00 
-5.4988589196955866e-02  2.2767159245300370e-01  0.0000000000000000e+00  2.2767159245300370e-01 -1.7352162364584121e+00  0.0000000000000000e+00 
 0.0000000000000000e+00  0.0000000000000000e+00  0.0000000000000000e+00 -5.0395033845494604e-02  3.0038153613048740e-01  0.0000000000000000e+00 
 3.0038153613048740e-01 -1.7904383689717618e+00  0.0000000000000000e+00  0.0000000000000000e+00  0.0000000000000000e+00  0.0000000000000000e+00 
-4.1364189202724624e-02  2.7443241240511118e-01  0.0000000000000000e+00  2.7443241240511118e-01 -1.8207405584425989e+00  0.0000000000000000e+00 
 0.0000000000000000e+00  0.0000000000000000e+00  0.0000000000000000e+00 -3.3069256828467765e-02  2.4721506935248119e-01  0.0000000000000000e+00 
 2.4721506935248119e-01 -1.8481040176438339e+00  0.0000000000000000e+00  0.0000000000000000e+00  0.0000000000000000e+00  0.0000000000000000e+00 
 1.0156386147940277e+00 -1.7397358196537413e-01  0.0000000000000000e+00 -1.7397358196537413e-01  1.5727091389892586e-01  0.0000000000000000e+00 
 0.0000000000000000e+00  0.0000000000000000e+00  0.0000000000000000e+00  1.0225250805740300e+00 -1.9436063424643668e-01  0.0000000000000000e+00 
-1.9436063424643668e-01  1.4505196217267372e-01  0.0000000000000000e+00  0.0000000000000000e+00  0.0000000000000000e+00  0.0000000000000000e+00 
 1.0069878089977076e+00 -1.9023186714332346e-01  0.0000000000000000e+00 -1.9023186714332346e-01  1.6750454629833122e-01  0.0000000000000000e+00 
 0.0000000000000000e+00  0.0000000000000000e+00  0.0000000000000000e+00  1.0308548550539958e+00 -2.1352896813639138e-01  0.0000000000000000e+00 
-2.1352896813639138e-01  1.3340536358039526e-01  0.0000000000000000e+00  0.0000000000000000e+00  0.0000000000000000e+00  0.0000000000000000e+00 
 1.0114416819503451e+00 -2.1026206027394462e-01  0.0000000000000000e+00 -2.1026206027394462e-01  1.5476310214199335e-01  0.0000000000000000e+00 