<VTKFile type="UnstructuredGrid" version="1.0" byte_order="LittleEndian" header_type="UInt64">
<UnstructuredGrid>
<Piece NumberOfPoints="7326" NumberOfCells="4884">
<PointData>
<DataArray type="Float64" Name="σ" NumberOfComponents="9" format="ascii">
 1.0245339440589616e+00 -3.0570439575769953e-01  0.0000000000000000e+00 -3.0570439575769953e-01  1.0698764043628915e-01  0.0000000000000000e+00 
 0.0000000000000000e+00  0.0000000000000000e+00  0.0000000000000000e+00  9.9251530866953619e-01 -3.1425827902723674e-01  0.0000000000000000e+00 
-3.1425827902723674e-01  1.1258439584359764e-01  0.0000000000000000e+00  0.0000000000000000e+00  0.0000000000000000e+00  0.0000000000000000e+00 
 9.8766808947210638e-01 -3.0009187403581955e-01  0.0000000000000000e+00 -3.0009187403581955e-01  1.2370503853307049e-01  0.0000000000000000e+00 
 0.0000000000000000e+00  0.0000000000000000e+00  0.0000000000000000e+00  9.5675793123703545e-01 -3.1995973318723792e-01  0.0000000000000000e+00 
-3.1995973318723792e-01  1.1723292310076104e-01  0.0000000000000000e+00  0.0000000000000000e+00  0.0000000000000000e+00  0.0000000000000000e+00 
 9.5485766851337728e-01 -3.0553169152456783e-01  0.0000000000000000e+00 -3.0553169152456783e-01  1.2929562323267221e-01  0.0000000000000000e+00 
 0.0000000000000000e+00  0.0000000000000000e+00  0.0000000000000000e+00  9.5436008061518363e-01 -2.9055463342989257e-01  0.0000000000000000e+00 
-2.9055463342989257e-01  1.4064131549496625e-01  0.0000000000000000e+00  0.0000000000000000e+00  0.0000000000000000e+00  0.0000000000000000e+00 
-1.0531415501145627e-01  5.9697229674680663e-02  0.0000000000000000e+00  5.9697229674680663e-02 -1.1827180060317022e+00  0.0000000000000000e+00 
 0.0000000000000000e+00  0.0000000000000000e+00  0.0000000000000000e+00 -1.0037914248945841e-01  3.7203444266721640e-02  0.0000000000000000e+00 
 3.7203444266721640e-02 -1.0951395154544525e+00  0.0000000000000000e+00  0.0000000000000000e+00  0.0000000000000000e+00  0.0000000000000000e+00 
-1.0124634965208576e-01  7.3012638857495690e-02  0.0000000000000000e+00  7.3012638857495690e-02 -1.1853114866931964e+00  0.0000000000000000e+00 
 0.0000000000000000e+00  0.0000000000000000e+00  0.0000000000000000e+00 -9.1007049663043960e-02  1.2903692584772973e-02  0.0000000000000000e+00 
 1.2903692584772973e-02 -1.0138629323013708e+00  0.0000000000000000e+00  0.0000000000000000e+00  0.0000000000000000e+00  0.0000000000000000e+00 
-9.4902496804330327e-02  4.6641337681339642e-02  0.0000000000000000e+00  4.6641337681339642e-02 -1.0959147296122811e+00  0.0000000000000000e+00 
 0.0000000000000000e+00  0.0000000000000000e+00  0.0000000000000000e+00 -9.7289526899697429e-02  8.6506449883410705e-02  0.0000000000000000e+00 
 8.6506449883410705e-02 -1.1828317077980317e+00  0.0000000000000000e+00  0.0000000000000000e+00  0.0000000000000000e+00  0.0000000000000000e+00 
-1.0831613913480997e-01  5.7269486856567568e-02  0.0000000000000000e+00  5.7269486856567568e-02 -1.1496474403650530e+00  0.0000000000000000e+00 
 0.0000000000000000e+00  0.0000000000000000e+00  0.0000000000000000e+00 -1.1248824780917981e-01  4.0731117499682806e-02  0.0000000000000000e+00 
 4.0731117499682806e-02 -1.1189546495005875e+00  0.0000000000000000e+00  0.0000000000000000e+00  0.0000000000000000e+00  0.0000000000000000e+00 
-1.1107259529197298e-01  3.2002070794474563e-02  0.0000000000000000e+00  3.2002070794474563e-02 -1.0501038520213859e+00  0.0000000000000000e+00 
 0.0000000000000000e+00  0.0000000000000000e+00  0.0000000000000000e+00 -1.1665065514829234e-01  2.6898839812377395e-02  0.0000000000000000e+00 
 2.6898839812377395e-02 -1.0848781960037841e+00  0.0000000000000000e+00  0.0000000000000000e+00  0.0000000000000000e+00  0.0000000000000000e+00 
-1.1508423193727775e-01  2.0065672561432248e-02  0.0000000000000000e+00  2.0065672561432248e-02 -1.0207055922045276e+00  0.0000000000000000e+00 
 0.0000000000000000e+00  0.0000000000000000e+00  0.0000000000000000e+00 -1.1051984613877153e-01  9.9177975186823478e-03  0.0000000000000000e+00 
 9.9177975186823478e-03 -9.5833740810620671e-01  0.0000000000000000e+00  0.0000000000000000e+00  0.0000000000000000e+00  0.0000000000000000e+00 
 3.1794614697731710e-01 -2.8780138973249952e-01  0.0000000000000000e+00 -2.8780138973249952e-01 -2.5314032095181643e-01  0.0000000000000000e+00 
 0.0000000000000000e+00  0.0000000000000000e+00  0.0000000000000000e+00  3.7748526768612423e-01 -3.0639811200614492e-01  0.0000000000000000e+00 
-3.0639811200614492e-01 -2.2340295324872009e-01  0.0000000000000000e+00  0.0000000000000000e+00  0.0000000000000000e+00  0.0000000000000000e+00 
 3.6367165239704058e-01 -3.0132004349370234e-01  0.0000000000000000e+00 -3.0132004349370234e-01 -2.6623920527002504e-01  0.0000000000000000e+00 
 0.0000000000000000e+00  0.0000000000000000e+00  0.0000000000000000e+00  4.3704046741578423e-01 -3.2212247834482449e-01  0.0000000000000000e+00 
-3.2212247834482449e-01 -1.9721498489851017e-01  0.0000000000000000e+00  0.0000000000000000e+00  0.0000000000000000e+00  0.0000000000000000e+00 
 4.2561742592975510e-01 -3.1888519298834733e-01  0.0000000000000000e+00 -3.1888519298834733e-01 -2.3682973561168158e-01  0.0000000000000000e+00 
 0.0000000000000000e+00  0.0000000000000000e+00  0.0000000000000000e+00  4.1389408148141399e-01 -3.1306856270850575e-01  0.0000000000000000e+00 
-3.1306856270850575e-01 -2.7796177010680173e-01  0.0000000000000000e+00  0.0000000000000000e+00  0.0000000000000000e+00  0.0000000000000000e+00 
 7.8030361206236709e-01 -2.8245132279688023e-01  0.0000000000000000e+00 -2.8245132279688023e-01 -4.1027738502019384e-01  0.0000000000000000e+00 
 0.0000000000000000e+00  0.0000000000000000e+00  0.0000000000000000e+00  8.2713927991097458e-01 -2.9535814314561937e-01  0.0000000000000000e+00 
-2.9535814314561937e-01 -3.9459393621271394e-01  0.0000000000000000e+00  0.0000000000000000e+00  0.0000000000000000e+00  0.0000000000000000e+00 
 8.5357545401327095e-01 -2.8191008084178609e-01  0.0000000000000000e+00 -2.8191008084178609e-01 -4.0239349741673325e-01  0.0000000000000000e+00 
 0.0000000000000000e+00  0.0000000000000000e+00  0.0000000000000000e+00  8.6962128936623195e-01 -3.0552155049250945e-01  0.0000000000000000e+00 
-3.0552155049250945e-01 -3.7767819155739041e-01  0.0000000000000000e+00  0.0000000000000000e+00  0.0000000000000000e+00  0.0000000000000000e+00 
 8.9840633013001159e-01 -2.9235829045466583e-01  0.0000000000000000e+00 -2.9235829045466583e-01 -3.8894685799818507e-01  0.0000000000000000e+00 
 0.0000000000000000e+00  0.0000000000000000e+00  0.0000000000000000e+00  9.2886918789800665e-01 -2.7899674410657843e-01  0.0000000000000000e+00 
-2.7899674410657843e-01 -3.9481491420158937e-01  0.0000000000000000e+00  0.0000000000000000e+00  0.0000000000000000e+00  0.0000000000000000e+00 
 3.5113948157608483e+00 -2.2893053261151063e-02  0.0000000000000000e+00 -2.2893053261151063e-02  3.4610171790549499e-01  0.0000000000000000e+00 
 0.0000000000000000e+00  0.0000000000000000e+00  0.0000000000000000e+00  3.6550360885171793e+00 -2.0996197547290901e-02  0.0000000000000000e+00 
-2.0996197547290901e-02  3.4055226186010651e-01  0.0000000000000000e+00  0.0000000000000000e+00  0.0000000000000000e+00  0.0000000000000000e+00 
 3.7266954851096235e+00 -5.0722878323180447e-02  0.0000000000000000e+00 -5.0722878323180447e-02  3.3002559151032262e-01  0.0000000000000000e+00 
 0.0000000000000000e+00  0.0000000000000000e+00  0.0000000000000000e+00  3.8001467203872918e+00 -7.3279675551979869e-03  0.0000000000000000e+00 
-7.3279675551979869e-03  3.2925464357542161e-01  0.0000000000000000e+00  0.0000000000000000e+00  0.0000000000000000e+00  0.0000000000000000e+00 
 3.8888338034225765e+00 -4.1383041960730407e-02  0.0000000000000000e+00 -4.1383041960730407e-02  3.1678275592667382e-01  0.0000000000000000e+00 
 0.0000000000000000e+00  0.0000000000000000e+00  0.0000000000000000e+00  3.9648155920250310e+00 -8.6060671164182465e-02  0.0000000000000000e+00 
-8.6060671164182465e-02  3.0286447300404645e-01  0.0000000000000000e+00  0.0000000000000000e+00  0.0000000000000000e+00  0.0000000000000000e+00 
 7.2361029057955506e-01 -3.2717655405911755e-01  0.0000000000000000e+00 -3.2717655405911755e-01  9.4006338434872785e-02  0.0000000000000000e+00 
 0.0000000000000000e+00  0.0000000000000000e+00  0.0000000000000000e+00  7.0383777858858110e-01 -3.1085467467717609e-01  0.0000000000000000e+00 
-3.1085467467717609e-01  1.0776986530171478e-01  0.0000000000000000e+00  0.0000000000000000e+00  0.0000000000000000e+00  0.0000000000000000e+00 
 7.5488899646999685e-01 -3.2358180218044574e-01  0.0000000000000000e+00 -3.2358180218044574e-01  1.0729116832391056e-01  0.0000000000000000e+00 
 0.0000000000000000e+00  0.0000000000000000e+00  0.0000000000000000e+00  6.8698490793718958e-01 -2.9330415614153915e-01  0.0000000000000000e+00 
-2.9330415614153915e-01  1.2111989293990735e-01  0.0000000000000000e+00  0.0000000000000000e+00  0.0000000000000000e+00  0.0000000000000000e+00 
 7.3608690530320309e-01 -3.0791265610862001e-01  0.0000000000000000e+00 -3.0791265610862001e-01  1.2029571436944547e-01  0.0000000000000000e+00 
 0.0000000000000000e+00  0.0000000000000000e+00  0.0000000000000000e+00  7.8422524449925413e-01 -3.1931215169343768e-01  0.0000000000000000e+00 
-3.1931215169343768e-01  1.1850062529443664e-01  0.0000000000000000e+00  0.0000000000000000e+00  0.0000000000000000e+00  0.0000000000000000e+00 
 8.4128380702203898e-01 -3.4760285612609504e-01  0.0000000000000000e+00 -3.4760285612609504e-01  1.6996710203390691e-02  0.0000000000000000e+00 
 0.0000000000000000e+00  0.0000000000000000e+00  0.0000000000000000e+00  9.0632080005559035e-01 -3.4541553854691537e-01  0.0000000000000000e+00 
-3.4541553854691537e-01  2.3960429924970123e-02  0.0000000000000000e+00  0.0000000000000000e+00  0.0000000000000000e+00  0.0000000000000000e+00 
 9.0753508461659049e-01 -3.5286101860997549e-01  0.0000000000000000e+00 -3.5286101860997549e-01 -1.0155863019496369e-03  0.0000000000000000e+00 
 0.0000000000000000e+00  0.0000000000000000e+00  0.0000000000000000e+00  9.6876680153498351e-01 -3.4097321767776262e-01  0.0000000000000000e+00 
-3.4097321767776262e-01  2.9503245495685965e-02  0.0000000000000000e+00  0.0000000000000000e+00  0.0000000000000000e+00  0.0000000000000000e+00 
 9.7246469156282123e-01 -3.4827308528937739e-01  0.0000000000000000e+00 -3.4827308528937739e-01  7.1426023341898083e-03  0.0000000000000000e+00 
 0.0000000000000000e+00  0.0000000000000000e+00  0.0000000000000000e+00  9.7742894138540171e-01 -3.5405278835700821e-01  0.0000000000000000e+00 
-3.5405278835700821e-01 -1.7595810116039622e-02  0.0000000000000000e+00  0.0000000000000000e+00  0.0000000000000000e+00  0.0000000000000000e+00 
 1.5730372450197316e-01 -8.1360842656010346e-02  0.0000000000000000e+00 -8.1360842656010346e-02 -9.9239827150391455e-03  0.0000000000000000e+00 
 0.0000000000000000e+00  0.0000000000000000e+00  0.0000000000000000e+00  1.6082420491376168e-01 -1.1167206104719882e-01  0.0000000000000000e+00 
-1.1167206104719882e-01 -2.7819323866349045e-02  0.0000000000000000e+00  0.0000000000000000e+00  0.0000000000000000e+00  0.0000000000000000e+00 
 1.3297247129654793e-01 -8.8081789490913456e-02  0.0000000000000000e+00 -8.8081789490913456e-02 -4.6729834220255957e-02  0.0000000000000000e+00 
 0.0000000000000000e+00  0.0000000000000000e+00  0.0000000000000000e+00  1.6999473878054089e-01 -1.4136510208433375e-01  0.0000000000000000e+00 
-1.4136510208433375e-01 -4.6269846242712326e-02  0.0000000000000000e+00  0.0000000000000000e+00  0.0000000000000000e+00  0.0000000000000000e+00 
 1.3808905642252187e-01 -1.1826552849360331e-01  0.0000000000000000e+00 -1.1826552849360331e-01 -6.5837668442910391e-02  0.0000000000000000e+00 
 0.0000000000000000e+00  0.0000000000000000e+00  0.0000000000000000e+00  1.0889738943592274e-01 -9.4357952664982078e-02  0.0000000000000000e+00 
-9.4357952664982078e-02 -8.7254891116752983e-02  0.0000000000000000e+00  0.0000000000000000e+00  0.0000000000000000e+00  0.0000000000000000e+00 
 1.4438560533564653e+00 -5.1288314088846410e-01  0.0000000000000000e+00 -5.1288314088846410e-01  1.7467295999877780e-01  0.0000000000000000e+00 
 0.0000000000000000e+00  0.0000000000000000e+00  0.0000000000000000e+00  1.4291438718068143e+00 -4.4716723952640697e-01  0.0000000000000000e+00 
-4.4716723952640697e-01  9.6849557460457536e-02  0.0000000000000000e+00  0.0000000000000000e+00  0.0000000000000000e+00  0.0000000000000000e+00 
 1.5664601106969063e+00 -4.4512575509973706e-01  0.0000000000000000e+00 -4.4512575509973706e-01  9.0056647834691014e-02  0.0000000000000000e+00 
 0.0000000000000000e+00  0.0000000000000000e+00  0.0000000000000000e+00  1.4182173423394171e+00 -3.9244550627209213e-01  0.0000000000000000e+00 
-3.9244550627209213e-01  2.6061847244557974e-02  0.0000000000000000e+00  0.0000000000000000e+00  0.0000000000000000e+00  0.0000000000000000e+00 
 1.5445083651275091e+00 -3.8943506605071265e-01  0.0000000000000000e+00 -3.8943506605071265e-01  2.3892836428609714e-02  0.0000000000000000e+00 
 0.0000000000000000e+00  0.0000000000000000e+00  0.0000000000000000e+00  1.6676405215674359e+00 -3.7898645785899437e-01  0.0000000000000000e+00 
-3.7898645785899437e-01  1.9997411732766441e-02  0.0000000000000000e+00  0.0000000000000000e+00  0.0000000000000000e+00  0.0000000000000000e+00 
 5.0062924590985514e-01  1.4810804883068091e-01  0.0000000000000000e+00  1.4810804883068091e-01 -3.8934958839721290e-01  0.0000000000000000e+00 
 0.0000000000000000e+00  0.0000000000000000e+00  0.0000000000000000e+00  5.6398094741562477e-01  1.6700359434254727e-01  0.0000000000000000e+00 
 1.6700359434254727e-01 -3.6798956527449733e-01  0.0000000000000000e+00  0.0000000000000000e+00  0.0000000000000000e+00  0.0000000000000000e+00 
 5.8515674913656623e-01  1.8012554985495249e-01  0.0000000000000000e+00  1.8012554985495249e-01 -4.0062240079085776e-01  0.0000000000000000e+00 
 0.0000000000000000e+00  0.0000000000000000e+00  0.0000000000000000e+00  6.3069503385770465e-01  1.8456342865665648e-01  0.0000000000000000e+00 
 1.8456342865665648e-01 -3.4885331606767228e-01  0.0000000000000000e+00  0.0000000000000000e+00  0.0000000000000000e+00  0.0000000000000000e+00 
 6.4746939116698521e-01  1.9404446135258421e-01  0.0000000000000000e+00  1.9404446135258421e-01 -3.8306741427192403e-01  0.0000000000000000e+00 
 0.0000000000000000e+00  0.0000000000000000e+00  0.0000000000000000e+00  6.6102295734535954e-01  2.0615327903531311e-01  0.0000000000000000e+00 
 2.0615327903531311e-01 -4.0758277064231863e-01  0.0000000000000000e+00  0.0000000000000000e+00  0.0000000000000000e+00  0.0000000000000000e+00 
 1.8789191025124576e+00  6.4273918744290864e-02  0.0000000000000000e+00  6.4273918744290864e-02 -2.2949124210236099e-01  0.0000000000000000e+00 
 0.0000000000000000e+00  0.0000000000000000e+00  0.0000000000000000e+00  1.8385267084384200e+00  5.3424980241636444e-02  0.0000000000000000e+00 
 5.3424980241636444e-02 -2.5771769461358307e-01  0.0000000000000000e+00  0.0000000000000000e+00  0.0000000000000000e+00  0.0000000000000000e+00 
 1.7872681185807413e+00  1.0184853374197279e-01  0.0000000000000000e+00  1.0184853374197279e-01 -2.4742721800064249e-01  0.0000000000000000e+00 
 0.0000000000000000e+00  0.0000000000000000e+00  0.0000000000000000e+00  1.8035333973854204e+00  4.9471164615222725e-02  0.0000000000000000e+00 
 4.9471164615222725e-02 -2.7785175776151111e-01  0.0000000000000000e+00  0.0000000000000000e+00  0.0000000000000000e+00  0.0000000000000000e+00 
 1.7535795490899486e+00  9.0684168171693197e-02  0.0000000000000000e+00  9.0684168171693197e-02 -2.7544451409189735e-01  0.0000000000000000e+00 
 0.0000000000000000e+00  0.0000000000000000e+00  0.0000000000000000e+00  1.6891884509348873e+00  1.3523924262175338e-01  0.0000000000000000e+00 
 1.3523924262175338e-01 -2.6453718928035852e-01  0.0000000000000000e+00  0.0000000000000000e+00  0.0000000000000000e+00  0.0000000000000000e+00 
-7.9027845688657963e-02 -4.2769332069443451e-02  0.0000000000000000e+00 -4.2769332069443451e-02 -8.5119528535586753e-01  0.0000000000000000e+00 
 0.0000000000000000e+00  0.0000000000000000e+00  0.0000000000000000e+00 -7.0714037331660831e-02 -6.3616365137238548e-02  0.0000000000000000e+00 
-6.3616365137238548e-02 -7.7266014013062911e-01  0.0000000000000000e+00  0.0000000000000000e+00  0.0000000000000000e+00  0.0000000000000000e+00 
-5.9190578090941248e-02 -6.7480987507359466e-02  0.0000000000000000e+00 -6.7480987507359466e-02 -7.8094053110749839e-01  0.0000000000000000e+00 
 0.0000000000000000e+00  0.0000000000000000e+00  0.0000000000000000e+00 -6.0837197615732606e-02 -7.9608840858481925e-02  0.0000000000000000e+00 
-7.9608840858481925e-02 -6.9904268632821143e-01  0.0000000000000000e+00  0.0000000000000000e+00  0.0000000000000000e+00  0.0000000000000000e+00 
-4.9380934019889661e-02 -8.6514952792681968e-02  0.0000000000000000e+00 -8.6514952792681968e-02 -7.0936797459056711e-01  0.0000000000000000e+00 
 0.0000000000000000e+00  0.0000000000000000e+00  0.0000000000000000e+00 -3.5778718662776939e-02 -9.2742822276235592e-02  0.0000000000000000e+00 
-9.2742822276235592e-02 -7.1641646949143423e-01  0.0000000000000000e+00  0.0000000000000000e+00  0.0000000000000000e+00  0.0000000000000000e+00 
 1.9633836107369504e+00  1.8738471670028657e-02  0.0000000000000000e+00  1.8738471670028657e-02 -2.2627485334568673e-01  0.0000000000000000e+00 
 0.0000000000000000e+00  0.0000000000000000e+00  0.0000000000000000e+00  2.0204733221776134e+00  7.8353394725397277e-02  0.0000000000000000e+00 
 7.8353394725397277e-02 -2.0523781713219225e-01  0.0000000000000000e+00  0.0000000000000000e+00  0.0000000000000000e+00  0.0000000000000000e+00 
 2.0301277421687614e+00  2.7065204857477099e-02  0.0000000000000000e+00  2.7065204857477099e-02 -1.9352803504289559e-01  0.0000000000000000e+00 
 0.0000000000000000e+00  0.0000000000000000e+00  0.0000000000000000e+00  2.0572098264638425e+00  1.3433900590941106e-01  0.0000000000000000e+00 
 1.3433900590941106e-01 -1.8151537159959477e-01  0.0000000000000000e+00  0.0000000000000000e+00  0.0000000000000000e+00  0.0000000000000000e+00 
 2.0816688347117189e+00  9.1010053350927392e-02  0.0000000000000000e+00  9.1010053350927392e-02 -1.7467206672410768e-01  0.0000000000000000e+00 
 0.0000000000000000e+00  0.0000000000000000e+00  0.0000000000000000e+00  2.1046496309376033e+00  3.0058169360777716e-02  0.0000000000000000e+00 
 3.0058169360777716e-02 -1.5463754398951535e-01  0.0000000000000000e+00  0.0000000000000000e+00  0.0000000000000000e+00  0.0000000000000000e+00 
 1.0957895386536463e+00 -3.0141788833770783e-01  0.0000000000000000e+00 -3.0141788833770783e-01 -3.8383875026543307e-01  0.0000000000000000e+00 
 0.0000000000000000e+00  0.0000000000000000e+00  0.0000000000000000e+00  1.1625980949609804e+00 -3.0035123682677084e-01  0.0000000000000000e+00 
-3.0035123682677084e-01 -3.6307241512150634e-01  0.0000000000000000e+00  0.0000000000000000e+00  0.0000000000000000e+00  0.0000000000000000e+00 
 1.1884750975532552e+00 -2.8288110906871372e-01  0.0000000000000000e+00 -2.8288110906871372e-01 -3.7568807954303002e-01  0.0000000000000000e+00 
 0.0000000000000000e+00  0.0000000000000000e+00  0.0000000000000000e+00  1.2215216678082792e+00 -2.9666185462843792e-01  0.0000000000000000e+00 
-2.9666185462843792e-01 -3.4047835506932073e-01  0.0000000000000000e+00  0.0000000000000000e+00  0.0000000000000000e+00  0.0000000000000000e+00 
 1.2501075428004487e+00 -2.7847516847660853e-01  0.0000000000000000e+00 -2.7847516847660853e-01 -3.5601261055466205e-01  0.0000000000000000e+00 
 0.0000000000000000e+00  0.0000000000000000e+00  0.0000000000000000e+00  1.2804928148886223e+00 -2.6007036016972129e-01  0.0000000000000000e+00 
-2.6007036016972129e-01 -3.6655550893247341e-01  0.0000000000000000e+00  0.0000000000000000e+00  0.0000000000000000e+00  0.0000000000000000e+00 
 5.1205548567551629e-01 -2.7106685375978162e-01  0.0000000000000000e+00 -2.7106685375978162e-01  8.0778052144327053e-02  0.0000000000000000e+00 
 0.0000000000000000e+00  0.0000000000000000e+00  0.0000000000000000e+00  5.7166091591580859e-01 -2.8348658109583930e-01  0.0000000000000000e+00 
-2.8348658109583930e-01  8.8765485912927267e-02  0.0000000000000000e+00  0.0000000000000000e+00  0.0000000000000000e+00  0.0000000000000000e+00 
 5.5837765521869309e-01 -2.9484420130697275e-01  0.0000000000000000e+00 -2.9484420130697275e-01  6.0774847038330214e-02  0.0000000000000000e+00 
 0.0000000000000000e+00  0.0000000000000000e+00  0.0000000000000000e+00  6.3073604792840965e-01 -2.9299643974265138e-01  0.0000000000000000e+00 
-2.9299643974265138e-01  9.4719926155471659e-02  0.0000000000000000e+00  0.0000000000000000e+00  0.0000000000000000e+00  0.0000000000000000e+00 
 6.2049099007954689e-01 -3.0465497457813634e-01  0.0000000000000000e+00 -3.0465497457813634e-01  6.9115797742925408e-02  0.0000000000000000e+00 
 0.0000000000000000e+00  0.0000000000000000e+00  0.0000000000000000e+00  6.1088160664992208e-01 -3.1553335839863933e-01  0.0000000000000000e+00 
-3.1553335839863933e-01  4.0645113014396377e-02  0.0000000000000000e+00  0.0000000000000000e+00  0.0000000000000000e+00  0.0000000000000000e+00 
 7.1636513434002946e-01 -3.4382786243169372e-01  0.0000000000000000e+00 -3.4382786243169372e-01  3.7294081651372156e-03  0.0000000000000000e+00 
 0.0000000000000000e+00  0.0000000000000000e+00  0.0000000000000000e+00  6.5655970800403030e-01 -3.3923357373563529e-01  0.0000000000000000e+00 
-3.3923357373563529e-01 -6.1393845257353445e-03  0.0000000000000000e+00  0.0000000000000000e+00  0.0000000000000000e+00  0.0000000000000000e+00 
 6.6139302152365964e-01 -3.3117619362828504e-01  0.0000000000000000e+00 -3.3117619362828504e-01  2.1987858313011501e-02  0.0000000000000000e+00 
 0.0000000000000000e+00  0.0000000000000000e+00  0.0000000000000000e+00  5.9537128821198326e-01 -3.3221872081262693e-01  0.0000000000000000e+00 
-3.3221872081262693e-01 -1.7676749788337821e-02  0.0000000000000000e+00  0.0000000000000000e+00  0.0000000000000000e+00  0.0000000000000000e+00 
 6.0279170941630134e-01 -3.2436840421356339e-01  0.0000000000000000e+00 -3.2436840421356339e-01  1.2715827687362338e-02  0.0000000000000000e+00 
 0.0000000000000000e+00  0.0000000000000000e+00  0.0000000000000000e+00  6.1088160664992208e-01 -3.1553335839863933e-01  0.0000000000000000e+00 
-3.1553335839863933e-01  4.0645113014396377e-02  0.0000000000000000e+00  0.0000000000000000e+00  0.0000000000000000e+00  0.0000000000000000e+00 
 5.3056148944418158e-01 -1.3200830734122476e-01  0.0000000000000000e+00 -1.3200830734122476e-01  2.3312264548741443e-01  0.0000000000000000e+00 
 0.0000000000000000e+00  0.0000000000000000e+00  0.0000000000000000e+00  5.6909393681313525e-01 -1.4840886040850343e-01  0.0000000000000000e+00 
-1.4840886040850343e-01  2.3323301893897752e-01  0.0000000000000000e+00  0.0000000000000000e+00  0.0000000000000000e+00  0.0000000000000000e+00 
 5.4412825360070249e-01 -1.5823309730918009e-01  0.0000000000000000e+00 -1.5823309730918009e-01  2.1965226799505413e-01  0.0000000000000000e+00 
 0.0000000000000000e+00  0.0000000000000000e+00  0.0000000000000000e+00  6.0891622372958731e-01 -1.6221756466858087e-01  0.0000000000000000e+00 
-1.6221756466858087e-01  2.3167702799451653e-01  0.0000000000000000e+00  0.0000000000000000e+00  0.0000000000000000e+00  0.0000000000000000e+00 
 5.8641169961421324e-01 -1.7314043908995522e-01  0.0000000000000000e+00 -1.7314043908995522e-01  2.1932936760685504e-01  0.0000000000000000e+00 
 0.0000000000000000e+00  0.0000000000000000e+00  0.0000000000000000e+00  5.6267741323024445e-01 -1.8408888538342882e-01  0.0000000000000000e+00 
-1.8408888538342882e-01  2.0471481380793696e-01  0.0000000000000000e+00  0.0000000000000000e+00  0.0000000000000000e+00  0.0000000000000000e+00 
 1.1498926595840366e+00 -3.0554706399870951e-01  0.0000000000000000e+00 -3.0554706399870951e-01 -1.2359655823506471e-01  0.0000000000000000e+00 
 0.0000000000000000e+00  0.0000000000000000e+00  0.0000000000000000e+00  1.0312395549799505e+00 -2.9450293183278425e-01  0.0000000000000000e+00 
-2.9450293183278425e-01 -1.3244760320076163e-01  0.0000000000000000e+00  0.0000000000000000e+00  0.0000000000000000e+00  0.0000000000000000e+00 
 1.1450412728972470e+00 -2.8163147178884657e-01  0.0000000000000000e+00 -2.8163147178884657e-01 -1.8243682810768144e-01  0.0000000000000000e+00 
 0.0000000000000000e+00  0.0000000000000000e+00  0.0000000000000000e+00  9.1485151986252167e-01 -2.7701221978702467e-01  0.0000000000000000e+00 
-2.7701221978702467e-01 -1.4541860609379806e-01  0.0000000000000000e+00  0.0000000000000000e+00  0.0000000000000000e+00  0.0000000000000000e+00 
 1.0356974055136006e+00 -2.7366361283204721e-01  0.0000000000000000e+00 -2.7366361283204721e-01 -1.9353226417909508e-01  0.0000000000000000e+00 
 0.0000000000000000e+00  0.0000000000000000e+00  0.0000000000000000e+00  1.1412256328289319e+00 -2.6499626513846325e-01  0.0000000000000000e+00 
-2.6499626513846325e-01 -2.3300095983394739e-01  0.0000000000000000e+00  0.0000000000000000e+00  0.0000000000000000e+00  0.0000000000000000e+00 
 1.4245389219729423e+00 -7.4994843940975303e-02  0.0000000000000000e+00 -7.4994843940975303e-02  6.8114898737221000e-02  0.0000000000000000e+00 
 0.0000000000000000e+00  0.0000000000000000e+00  0.0000000000000000e+00  1.0401181488140545e+00 -2.2159273563337960e-02  0.0000000000000000e+00 
-2.2159273563337960e-02  2.0296274467487819e-02  0.0000000000000000e+00  0.0000000000000000e+00  0.0000000000000000e+00  0.0000000000000000e+00 
 1.0797500465840013e+00 -6.4020640789491212e-02  0.0000000000000000e+00 -6.4020640789491212e-02  1.8363999129378031e-02  0.0000000000000000e+00 
 0.0000000000000000e+00  0.0000000000000000e+00  0.0000000000000000e+00  5.9851509718115659e-01 -6.1063854285341124e-08  0.0000000000000000e+00 
-6.1063854285341124e-08  1.9047688805735291e-06  0.0000000000000000e+00  0.0000000000000000e+00  0.0000000000000000e+00  0.0000000000000000e+00 
 6.2601884999039858e-01 -9.4376413267230041e-07  0.0000000000000000e+00 -9.4376413267230041e-07 -2.2831593329976586e-06  0.0000000000000000e+00 
 0.0000000000000000e+00  0.0000000000000000e+00  0.0000000000000000e+00  7.1262252445246344e-01  9.7081995237666713e-07  0.0000000000000000e+00 
 9.7081995237666713e-07  1.0556970436910913e-06  0.0000000000000000e+00  0.0000000000000000e+00  0.0000000000000000e+00  0.0000000000000000e+00 
 8.3146768998447973e-01 -2.5477420618189311e-01  0.0000000000000000e+00 -2.5477420618189311e-01  1.7963571167505188e-01  0.0000000000000000e+00 
 0.0000000000000000e+00  0.0000000000000000e+00  0.0000000000000000e+00  8.5680365059576413e-01 -2.7571013571586089e-01  0.0000000000000000e+00 
-2.7571013571586089e-01  1.6477788111071440e-01  0.0000000000000000e+00  0.0000000000000000e+00  0.0000000000000000e+00  0.0000000000000000e+00 
 8.1972062198406692e-01 -2.7095249519780329e-01  0.0000000000000000e+00 -2.7095249519780329e-01  1.6681650104590401e-01  0.0000000000000000e+00 
 0.0000000000000000e+00  0.0000000000000000e+00  0.0000000000000000e+00  8.8616884721264666e-01 -2.9362611928182947e-01  0.0000000000000000e+00 
-2.9362611928182947e-01  1.4939378513737880e-01  0.0000000000000000e+00  0.0000000000000000e+00  0.0000000000000000e+00  0.0000000000000000e+00 
 8.4903611390444322e-01 -2.9169464705874643e-01  0.0000000000000000e+00 -2.9169464705874643e-01  1.5166005351400205e-01  0.0000000000000000e+00 
 0.0000000000000000e+00  0.0000000000000000e+00  0.0000000000000000e+00  8.0905578645685194e-01 -2.8712215091535853e-01  0.0000000000000000e+00 
-2.8712215091535853e-01  1.5286556562511833e-01  0.0000000000000000e+00  0.0000000000000000e+00  0.0000000000000000e+00  0.0000000000000000e+00 
 2.1547909979310069e+00  2.9001308594968907e-02  0.0000000000000000e+00  2.9001308594968907e-02 -1.1295223234919363e-01  0.0000000000000000e+00 
 0.0000000000000000e+00  0.0000000000000000e+00  0.0000000000000000e+00  2.0929798773729544e+00  2.0065928511455804e-03  0.0000000000000000e+00 
 2.0065928511455804e-03 -1.5300486115635073e-01  0.0000000000000000e+00  0.0000000000000000e+00  0.0000000000000000e+00  0.0000000000000000e+00 
 2.0703014207018051e+00  6.7405026027913387e-02  0.0000000000000000e+00  6.7405026027913387e-02 -1.3497076013121170e-01  0.0000000000000000e+00 
 0.0000000000000000e+00  0.0000000000000000e+00  0.0000000000000000e+00  2.0401446300601105e+00 -1.6673832027179671e-02  0.0000000000000000e+00 
-1.6673832027179671e-02 -1.8650472012512795e-01  0.0000000000000000e+00  0.0000000000000000e+00  0.0000000000000000e+00  0.0000000000000000e+00 
 2.0151213385123992e+00  3.9521282412860320e-02  0.0000000000000000e+00  3.9521282412860320e-02 -1.7555714872862546e-01  0.0000000000000000e+00 
 0.0000000000000000e+00  0.0000000000000000e+00  0.0000000000000000e+00  1.9767013224206433e+00  1.0239400335281079e-01  0.0000000000000000e+00 
 1.0239400335281079e-01 -1.5630514957625233e-01  0.0000000000000000e+00  0.0000000000000000e+00  0.0000000000000000e+00  0.0000000000000000e+00 
 3.8527944757908245e-01  3.1138561320217889e-01  0.0000000000000000e+00  3.1138561320217889e-01 -1.2612074043895297e-01  0.0000000000000000e+00 
 0.0000000000000000e+00  0.0000000000000000e+00  0.0000000000000000e+00  4.4285607792000392e-01  3.3197767838188907e-01  0.0000000000000000e+00 
 3.3197767838188907e-01 -1.1335899584247817e-01  0.0000000000000000e+00  0.0000000000000000e+00  0.0000000000000000e+00  0.0000000000000000e+00 
 4.1030064734078220e-01  3.0995326180858074e-01  0.0000000000000000e+00  3.0995326180858074e-01 -8.7948874835300492e-02  0.0000000000000000e+00 
 0.0000000000000000e+00  0.0000000000000000e+00  0.0000000000000000e+00  5.0136278443026394e-01  3.4982392678317842e-01  0.0000000000000000e+00 
 3.4982392678317842e-01 -1.0214311104258687e-01  0.0000000000000000e+00  0.0000000000000000e+00  0.0000000000000000e+00  0.0000000000000000e+00 
 4.6523453299254292e-01  3.2984670490758161e-01  0.0000000000000000e+00  3.2984670490758161e-01 -7.7712645328225305e-02  0.0000000000000000e+00 