<VTKFile type="UnstructuredGrid" version="1.0" byte_order="LittleEndian" header_type="UInt64">
<UnstructuredGrid>
<Piece NumberOfPoints="7326" NumberOfCells="4884">
<PointData>
<DataArray type="Float64" Name="σ" NumberOfComponents="9" format="ascii">
 1.9894599815760148e+00  1.6293252128619443e-01  0.0000000000000000e+00  1.6293252128619443e-01 -1.2869356565138931e-01  0.0000000000000000e+00 
 0.0000000000000000e+00  0.0000000000000000e+00  0.0000000000000000e+00  2.0005264343553106e+00  1.9894353957858299e-01  0.0000000000000000e+00 
 1.9894353957858299e-01 -1.1584443917580077e-01  0.0000000000000000e+00  0.0000000000000000e+00  0.0000000000000000e+00  0.0000000000000000e+00 
 1.9924404504077009e+00  1.7144888666967004e-01  0.0000000000000000e+00  1.7144888666967004e-01 -1.5303566336754157e-01  0.0000000000000000e+00 
 0.0000000000000000e+00  0.0000000000000000e+00  0.0000000000000000e+00  2.0045411864243077e+00  2.3143688898205189e-01  0.0000000000000000e+00 
 2.3143688898205189e-01 -1.0024335130299730e-01  0.0000000000000000e+00  0.0000000000000000e+00  0.0000000000000000e+00  0.0000000000000000e+00 
 2.0138403766943616e+00  2.0833851084735802e-01  0.0000000000000000e+00  2.0833851084735802e-01 -1.3564030248065581e-01  0.0000000000000000e+00 
 0.0000000000000000e+00  0.0000000000000000e+00  0.0000000000000000e+00  2.0060292319890878e+00  1.6923456177648766e-01  0.0000000000000000e+00 
 1.6923456177648766e-01 -1.7234838308848049e-01  0.0000000000000000e+00  0.0000000000000000e+00  0.0000000000000000e+00  0.0000000000000000e+00 
 3.4556118612937203e-01  1.8382015611620034e-01  0.0000000000000000e+00  1.8382015611620034e-01  3.5374328694396641e-02  0.0000000000000000e+00 
 0.0000000000000000e+00  0.0000000000000000e+00  0.0000000000000000e+00  2.9033208470708122e-01  1.4510123998785407e-01  0.0000000000000000e+00 
 1.4510123998785407e-01 -1.8417982633103522e-03  0.0000000000000000e+00  0.0000000000000000e+00  0.0000000000000000e+00  0.0000000000000000e+00 
 2.1930338093646265e-01  1.4383393618099827e-01  0.0000000000000000e+00  1.4383393618099827e-01  6.8783409819874880e-02  0.0000000000000000e+00 
 0.0000000000000000e+00  0.0000000000000000e+00  0.0000000000000000e+00  2.4054323024975688e-01  1.0741233792418621e-01  0.0000000000000000e+00 
 1.0741233792418621e-01 -4.1552260620910414e-02  0.0000000000000000e+00  0.0000000000000000e+00  0.0000000000000000e+00  0.0000000000000000e+00 
 1.6774664122826560e-01  1.0033584144764807e-01  0.0000000000000000e+00  1.0033584144764807e-01  2.5873239717354501e-02  0.0000000000000000e+00 
 0.0000000000000000e+00  0.0000000000000000e+00  0.0000000000000000e+00  8.7808309863350045e-02  9.4634931776108766e-02  0.0000000000000000e+00 
 9.4634931776108766e-02  1.0199217694551409e-01  0.0000000000000000e+00  0.0000000000000000e+00  0.0000000000000000e+00  0.0000000000000000e+00 
 1.0980746758906670e+00 -3.8765462333563733e-01  0.0000000000000000e+00 -3.8765462333563733e-01 -1.0142299033537380e-01  0.0000000000000000e+00 
 0.0000000000000000e+00  0.0000000000000000e+00  0.0000000000000000e+00  1.0505031438789303e+00 -3.9315738072380974e-01  0.0000000000000000e+00 
-3.9315738072380974e-01 -1.2073120856491021e-01  0.0000000000000000e+00  0.0000000000000000e+00  0.0000000000000000e+00  0.0000000000000000e+00 
 1.0314028155134365e+00 -3.9662733328134769e-01  0.0000000000000000e+00 -3.9662733328134769e-01 -9.6635207740683071e-02  0.0000000000000000e+00 
 0.0000000000000000e+00  0.0000000000000000e+00  0.0000000000000000e+00  9.9968887912949689e-01 -3.9736247855600282e-01  0.0000000000000000e+00 
-3.9736247855600282e-01 -1.4163507025396124e-01  0.0000000000000000e+00  0.0000000000000000e+00  0.0000000000000000e+00  0.0000000000000000e+00 
 9.8173981428107848e-01 -4.0069726263039374e-01  0.0000000000000000e+00 -4.0069726263039374e-01 -1.1544012647000990e-01  0.0000000000000000e+00 
 0.0000000000000000e+00  0.0000000000000000e+00  0.0000000000000000e+00  9.6579989377905662e-01 -4.0222704799502768e-01  0.0000000000000000e+00 
-4.0222704799502768e-01 -9.0192910769622658e-02  0.0000000000000000e+00  0.0000000000000000e+00  0.0000000000000000e+00  0.0000000000000000e+00 
 2.6257593350496760e+00 -7.5567115383918554e-02  0.0000000000000000e+00 -7.5567115383918554e-02  2.9898629037247509e-01  0.0000000000000000e+00 
 0.0000000000000000e+00  0.0000000000000000e+00  0.0000000000000000e+00  2.6974654782213086e+00 -8.7041236955743367e-02  0.0000000000000000e+00 
-8.7041236955743367e-02  2.9455378889979894e-01  0.0000000000000000e+00  0.0000000000000000e+00  0.0000000000000000e+00  0.0000000000000000e+00 
 2.8765757834106642e+00 -4.5360601216308971e-02  0.0000000000000000e+00 -4.5360601216308971e-02  3.2582120325745623e-01  0.0000000000000000e+00 
 0.0000000000000000e+00  0.0000000000000000e+00  0.0000000000000000e+00  2.7576099910979792e+00 -8.9875139327131745e-02  0.0000000000000000e+00 
-8.9875139327131745e-02  2.8417396604574874e-01  0.0000000000000000e+00  0.0000000000000000e+00  0.0000000000000000e+00  0.0000000000000000e+00 
 2.9473902457159489e+00 -4.2123502818359422e-02  0.0000000000000000e+00 -4.2123502818359422e-02  3.1697361060846296e-01  0.0000000000000000e+00 
 0.0000000000000000e+00  0.0000000000000000e+00  0.0000000000000000e+00  3.1600832529522962e+00 -1.3800375022755219e-04  0.0000000000000000e+00 
-1.3800375022755219e-04  3.3969346737575545e-01  0.0000000000000000e+00  0.0000000000000000e+00  0.0000000000000000e+00  0.0000000000000000e+00 
 5.9833240348734183e-02 -1.7723007232974339e-01  0.0000000000000000e+00 -1.7723007232974339e-01 -4.7996657652082120e-01  0.0000000000000000e+00 
 0.0000000000000000e+00  0.0000000000000000e+00  0.0000000000000000e+00  4.1735637313583672e-02 -1.6336909686188361e-01  0.0000000000000000e+00 
-1.6336909686188361e-01 -5.3798102678789717e-01  0.0000000000000000e+00  0.0000000000000000e+00  0.0000000000000000e+00  0.0000000000000000e+00 
 2.3964759503767630e-02 -1.5195688484062383e-01  0.0000000000000000e+00 -1.5195688484062383e-01 -5.2898605808249743e-01  0.0000000000000000e+00 
 0.0000000000000000e+00  0.0000000000000000e+00  0.0000000000000000e+00  2.4135835173061171e-02 -1.4573492459350385e-01  0.0000000000000000e+00 
-1.4573492459350385e-01 -6.0007515368121711e-01  0.0000000000000000e+00  0.0000000000000000e+00  0.0000000000000000e+00  0.0000000000000000e+00 
 6.3091548144754601e-03 -1.3635833202451775e-01  0.0000000000000000e+00 -1.3635833202451775e-01 -5.9275962513762148e-01  0.0000000000000000e+00 
 0.0000000000000000e+00  0.0000000000000000e+00  0.0000000000000000e+00 -9.0401923912678817e-03 -1.2632004267503297e-01  0.0000000000000000e+00 
-1.2632004267503297e-01 -5.8288461902874544e-01  0.0000000000000000e+00  0.0000000000000000e+00  0.0000000000000000e+00  0.0000000000000000e+00 
 1.6325850891752522e+00 -1.8820803373448772e-01  0.0000000000000000e+00 -1.8820803373448772e-01  1.8820353306249755e-03  0.0000000000000000e+00 
 0.0000000000000000e+00  0.0000000000000000e+00  0.0000000000000000e+00  1.6544821000676404e+00 -1.9322900968512394e-01  0.0000000000000000e+00 
-1.9322900968512394e-01 -3.0241548011647134e-03  0.0000000000000000e+00  0.0000000000000000e+00  0.0000000000000000e+00  0.0000000000000000e+00 
 1.5748274735184913e+00 -2.1861931500421478e-01  0.0000000000000000e+00 -2.1861931500421478e-01 -3.5974468705019246e-05  0.0000000000000000e+00 
 0.0000000000000000e+00  0.0000000000000000e+00  0.0000000000000000e+00  1.6753047486507788e+00 -1.9602389385532487e-01  0.0000000000000000e+00 
-1.9602389385532487e-01 -9.3626251765266521e-03  0.0000000000000000e+00  0.0000000000000000e+00  0.0000000000000000e+00  0.0000000000000000e+00 
 1.5926942260355146e+00 -2.2240971244091273e-01  0.0000000000000000e+00 -2.2240971244091273e-01 -7.5482277702350097e-03  0.0000000000000000e+00 
 0.0000000000000000e+00  0.0000000000000000e+00  0.0000000000000000e+00  1.5134854599928336e+00 -2.4539147902899838e-01  0.0000000000000000e+00 
-2.4539147902899838e-01 -3.6323057544241457e-03  0.0000000000000000e+00  0.0000000000000000e+00  0.0000000000000000e+00  0.0000000000000000e+00 
 4.6331031009443286e+00 -4.7291857591923664e-01  0.0000000000000000e+00 -4.7291857591923664e-01  1.7413557570909280e-01  0.0000000000000000e+00 
 0.0000000000000000e+00  0.0000000000000000e+00  0.0000000000000000e+00  4.8652953124677030e+00 -5.1575673477451411e-01  0.0000000000000000e+00 
-5.1575673477451411e-01  1.2328857193571656e-01  0.0000000000000000e+00  0.0000000000000000e+00  0.0000000000000000e+00  0.0000000000000000e+00 
 4.7948925005068022e+00 -5.8031902772008426e-01  0.0000000000000000e+00 -5.8031902772008426e-01  1.3823668468889180e-01  0.0000000000000000e+00 
 0.0000000000000000e+00  0.0000000000000000e+00  0.0000000000000000e+00  5.1185764034705219e+00 -5.5519453323877654e-01  0.0000000000000000e+00 
-5.5519453323877654e-01  6.0220280167124406e-02  0.0000000000000000e+00  0.0000000000000000e+00  0.0000000000000000e+00  0.0000000000000000e+00 
 5.0435184075298132e+00 -6.3203452470081534e-01  0.0000000000000000e+00 -6.3203452470081534e-01  7.9204663860943256e-02  0.0000000000000000e+00 
 0.0000000000000000e+00  0.0000000000000000e+00  0.0000000000000000e+00  4.9588673362031974e+00 -7.0533088956622425e-01  0.0000000000000000e+00 
-7.0533088956622425e-01  1.0032384746114920e-01  0.0000000000000000e+00  0.0000000000000000e+00  0.0000000000000000e+00  0.0000000000000000e+00 
 2.3908289194974772e-01 -1.0628136271550306e-01  0.0000000000000000e+00 -1.0628136271550306e-01 -4.2773220534039383e-02  0.0000000000000000e+00 
 0.0000000000000000e+00  0.0000000000000000e+00  0.0000000000000000e+00  1.2198259784187875e-01 -5.8290052150228824e-02  0.0000000000000000e+00 
-5.8290052150228824e-02 -1.9858723111777839e-02  0.0000000000000000e+00  0.0000000000000000e+00  0.0000000000000000e+00  0.0000000000000000e+00 
 1.9054045323269894e-01 -6.8240212348409324e-02  0.0000000000000000e+00 -6.8240212348409324e-02 -8.4100973763827844e-02  0.0000000000000000e+00 
 0.0000000000000000e+00  0.0000000000000000e+00  0.0000000000000000e+00  1.2742536152133034e-03 -1.4684006791144892e-03  0.0000000000000000e+00 
-1.4684006791144892e-03  1.6920116430953387e-03  0.0000000000000000e+00  0.0000000000000000e+00  0.0000000000000000e+00  0.0000000000000000e+00 
 7.7751155952640760e-02 -1.6264298603598161e-02  0.0000000000000000e+00 -1.6264298603598161e-02 -6.7096694636267329e-02  0.0000000000000000e+00 
 0.0000000000000000e+00  0.0000000000000000e+00  0.0000000000000000e+00  1.4743110482564045e-01 -3.1741906689343721e-02  0.0000000000000000e+00 
-3.1741906689343721e-02 -1.2768035027140068e-01  0.0000000000000000e+00  0.0000000000000000e+00  0.0000000000000000e+00  0.0000000000000000e+00 
 4.4971637633197459e-01 -2.5263552024584024e-01  0.0000000000000000e+00 -2.5263552024584024e-01 -4.6002234418572863e-01  0.0000000000000000e+00 
 0.0000000000000000e+00  0.0000000000000000e+00  0.0000000000000000e+00  4.0712448591086492e-01 -2.5030320571917947e-01  0.0000000000000000e+00 
-2.5030320571917947e-01 -4.6172864248510770e-01  0.0000000000000000e+00  0.0000000000000000e+00  0.0000000000000000e+00  0.0000000000000000e+00 
 4.7818285474978106e-01 -2.7349423682978247e-01  0.0000000000000000e+00 -2.7349423682978247e-01 -4.3356491794912344e-01  0.0000000000000000e+00 
 0.0000000000000000e+00  0.0000000000000000e+00  0.0000000000000000e+00  3.6742269471076933e-01 -2.4778074276079429e-01  0.0000000000000000e+00 
-2.4778074276079429e-01 -4.6148134515625133e-01  0.0000000000000000e+00  0.0000000000000000e+00  0.0000000000000000e+00  0.0000000000000000e+00 
 4.3539962284898376e-01 -2.7134553218729901e-01  0.0000000000000000e+00 -2.7134553218729901e-01 -4.3216126941992777e-01  0.0000000000000000e+00 
 0.0000000000000000e+00  0.0000000000000000e+00  0.0000000000000000e+00  5.0406576260472069e-01 -2.9120409340352221e-01  0.0000000000000000e+00 
-2.9120409340352221e-01 -4.0653842793679534e-01  0.0000000000000000e+00  0.0000000000000000e+00  0.0000000000000000e+00  0.0000000000000000e+00 
 1.4610327442505255e+00  2.4415108928456988e-01  0.0000000000000000e+00  2.4415108928456988e-01 -2.4401085955565430e-01  0.0000000000000000e+00 
 0.0000000000000000e+00  0.0000000000000000e+00  0.0000000000000000e+00  1.5368792289546309e+00  2.0883117256325920e-01  0.0000000000000000e+00 
 2.0883117256325920e-01 -2.3685411044331436e-01  0.0000000000000000e+00  0.0000000000000000e+00  0.0000000000000000e+00  0.0000000000000000e+00 
 1.4938712294522811e+00  2.4019071986472212e-01  0.0000000000000000e+00  2.4019071986472212e-01 -2.1303010655205301e-01  0.0000000000000000e+00 
 0.0000000000000000e+00  0.0000000000000000e+00  0.0000000000000000e+00  1.6100416293733351e+00  1.7144315157833159e-01  0.0000000000000000e+00 
 1.7144315157833159e-01 -2.2665226675669112e-01  0.0000000000000000e+00  0.0000000000000000e+00  0.0000000000000000e+00  0.0000000000000000e+00 
 1.5663649721808237e+00  2.0582227729908309e-01  0.0000000000000000e+00  2.0582227729908309e-01 -2.0579446985234642e-01  0.0000000000000000e+00 
 0.0000000000000000e+00  0.0000000000000000e+00  0.0000000000000000e+00  1.5250248610044372e+00  2.3659126505173453e-01  0.0000000000000000e+00 
 2.3659126505173453e-01 -1.8289205609956824e-01  0.0000000000000000e+00  0.0000000000000000e+00  0.0000000000000000e+00  0.0000000000000000e+00 
 1.9174341677772921e+00  7.3463207331853478e-02  0.0000000000000000e+00  7.3463207331853478e-02 -2.2579109101913439e-01  0.0000000000000000e+00 
 0.0000000000000000e+00  0.0000000000000000e+00  0.0000000000000000e+00  1.8975166263042300e+00  4.8701466596044060e-02  0.0000000000000000e+00 
 4.8701466596044060e-02 -2.4778887826213078e-01  0.0000000000000000e+00  0.0000000000000000e+00  0.0000000000000000e+00  0.0000000000000000e+00 
 1.8612256701434144e+00  2.6431195682911943e-02  0.0000000000000000e+00  2.6431195682911943e-02 -2.5160145064910244e-01  0.0000000000000000e+00 
 0.0000000000000000e+00  0.0000000000000000e+00  0.0000000000000000e+00  1.8718700612105952e+00  1.5947670194924397e-02  0.0000000000000000e+00 
 1.5947670194924397e-02 -2.6409702325054735e-01  0.0000000000000000e+00  0.0000000000000000e+00  0.0000000000000000e+00  0.0000000000000000e+00 
 1.8305222150243050e+00 -1.7369380947140185e-03  0.0000000000000000e+00 -1.7369380947140185e-03 -2.7235478227671628e-01  0.0000000000000000e+00 
 0.0000000000000000e+00  0.0000000000000000e+00  0.0000000000000000e+00  1.7932026711239333e+00 -2.1865250987775781e-02  0.0000000000000000e+00 
-2.1865250987775781e-02 -2.7499086366853825e-01  0.0000000000000000e+00  0.0000000000000000e+00  0.0000000000000000e+00  0.0000000000000000e+00 
 5.9833240348734565e-02 -1.7723007232974364e-01  0.0000000000000000e+00 -1.7723007232974364e-01 -4.7996657652081964e-01  0.0000000000000000e+00 
 0.0000000000000000e+00  0.0000000000000000e+00  0.0000000000000000e+00  2.3964759503768411e-02 -1.5195688484062014e-01  0.0000000000000000e+00 
-1.5195688484062014e-01 -5.2898605808247856e-01  0.0000000000000000e+00  0.0000000000000000e+00  0.0000000000000000e+00  0.0000000000000000e+00 
 4.0654545967519010e-02 -1.6282425453297705e-01  0.0000000000000000e+00 -1.6282425453297705e-01 -4.7073782978188033e-01  0.0000000000000000e+00 
 0.0000000000000000e+00  0.0000000000000000e+00  0.0000000000000000e+00 -9.0401923912650575e-03 -1.2632004267503930e-01  0.0000000000000000e+00 
-1.2632004267503930e-01 -5.8288461902875566e-01  0.0000000000000000e+00  0.0000000000000000e+00  0.0000000000000000e+00  0.0000000000000000e+00 
 7.2518669081675733e-03 -1.3856867954499627e-01  0.0000000000000000e+00 -1.3856867954499627e-01 -5.1901023560896686e-01  0.0000000000000000e+00 
 0.0000000000000000e+00  0.0000000000000000e+00  0.0000000000000000e+00  2.4479070815274478e-02 -1.4762508306009947e-01  0.0000000000000000e+00 
-1.4762508306009947e-01 -4.5965259149559096e-01  0.0000000000000000e+00  0.0000000000000000e+00  0.0000000000000000e+00  0.0000000000000000e+00 
-1.2559288821864184e-01 -4.7718339627419682e-03  0.0000000000000000e+00 -4.7718339627419682e-03 -1.1601058383484777e+00  0.0000000000000000e+00 
 0.0000000000000000e+00  0.0000000000000000e+00  0.0000000000000000e+00 -1.2304885752840654e-01 -1.0608031126157616e-02  0.0000000000000000e+00 
-1.0608031126157616e-02 -1.1952465631414133e+00  0.0000000000000000e+00  0.0000000000000000e+00  0.0000000000000000e+00  0.0000000000000000e+00 
-1.2739718229311872e-01 -3.5867157929270425e-03  0.0000000000000000e+00 -3.5867157929270425e-03 -1.0856999878021198e+00  0.0000000000000000e+00 
 0.0000000000000000e+00  0.0000000000000000e+00  0.0000000000000000e+00 -1.1995573713769579e-01 -1.8493670169847660e-02  0.0000000000000000e+00 
-1.8493670169847660e-02 -1.2291084795613145e+00  0.0000000000000000e+00  0.0000000000000000e+00  0.0000000000000000e+00  0.0000000000000000e+00 
-1.2545307562397717e-01 -8.0294584503601309e-03  0.0000000000000000e+00 -8.0294584503601309e-03 -1.1169667062993940e+00  0.0000000000000000e+00 
 0.0000000000000000e+00  0.0000000000000000e+00  0.0000000000000000e+00 -1.2654772737179462e-01  8.8688564723044905e-04  0.0000000000000000e+00 
 8.8688564723044905e-04 -1.0145465358083599e+00  0.0000000000000000e+00  0.0000000000000000e+00  0.0000000000000000e+00  0.0000000000000000e+00 
-9.1798273251790977e-02  1.7683882439141754e-01  0.0000000000000000e+00  1.7683882439141754e-01 -1.3644971057906250e+00  0.0000000000000000e+00 
 0.0000000000000000e+00  0.0000000000000000e+00  0.0000000000000000e+00 -9.0131321523426136e-02  1.6637507015475059e-01  0.0000000000000000e+00 
 1.6637507015475059e-01 -1.3798843851649381e+00  0.0000000000000000e+00  0.0000000000000000e+00  0.0000000000000000e+00  0.0000000000000000e+00 
-9.6394491643377461e-02  1.3844929150576285e-01  0.0000000000000000e+00  1.3844929150576285e-01 -1.2920261010886749e+00  0.0000000000000000e+00 
 0.0000000000000000e+00  0.0000000000000000e+00  0.0000000000000000e+00 -8.8612296174031574e-02  1.5515724310965429e-01  0.0000000000000000e+00 
 1.5515724310965429e-01 -1.3932083267062494e+00  0.0000000000000000e+00  0.0000000000000000e+00  0.0000000000000000e+00  0.0000000000000000e+00 
-9.6072729166029006e-02  1.2970215911848113e-01  0.0000000000000000e+00  1.2970215911848113e-01 -1.3044529025456457e+00  0.0000000000000000e+00 
 0.0000000000000000e+00  0.0000000000000000e+00  0.0000000000000000e+00 -1.0037854674077637e-01  1.0504744455246350e-01  0.0000000000000000e+00 
 1.0504744455246350e-01 -1.2215185389433165e+00  0.0000000000000000e+00  0.0000000000000000e+00  0.0000000000000000e+00  0.0000000000000000e+00 
 7.1237247381677327e-01 -3.7174267445829595e-01  0.0000000000000000e+00 -3.7174267445829595e-01  6.6343669328940355e-03  0.0000000000000000e+00 
 0.0000000000000000e+00  0.0000000000000000e+00  0.0000000000000000e+00  7.1424078682493186e-01 -3.8064709692148208e-01  0.0000000000000000e+00 
-3.8064709692148208e-01 -2.0066129912234259e-02  0.0000000000000000e+00  0.0000000000000000e+00  0.0000000000000000e+00  0.0000000000000000e+00 
 6.6526785915421371e-01 -3.6725518223211973e-01  0.0000000000000000e+00 -3.6725518223211973e-01 -8.0415485693393369e-03  0.0000000000000000e+00 
 0.0000000000000000e+00  0.0000000000000000e+00  0.0000000000000000e+00  7.1831123104688943e-01 -3.8827465605789013e-01  0.0000000000000000e+00 
-3.8827465605789013e-01 -4.8789426019899877e-02  0.0000000000000000e+00  0.0000000000000000e+00  0.0000000000000000e+00  0.0000000000000000e+00 
 6.6537462526743596e-01 -3.7624822455085771e-01  0.0000000000000000e+00 -3.7624822455085771e-01 -3.7082939379726572e-02  0.0000000000000000e+00 
 0.0000000000000000e+00  0.0000000000000000e+00  0.0000000000000000e+00  6.1585330725365584e-01 -3.6103831189781133e-01  0.0000000000000000e+00 
-3.6103831189781133e-01 -2.4841870828759004e-02  0.0000000000000000e+00  0.0000000000000000e+00  0.0000000000000000e+00  0.0000000000000000e+00 
-4.6400031246100724e-02 -1.7142196938966209e-01  0.0000000000000000e+00 -1.7142196938966209e-01 -4.5533686762043418e-01  0.0000000000000000e+00 
 0.0000000000000000e+00  0.0000000000000000e+00  0.0000000000000000e+00 -1.0700553527622610e-01 -2.1226915205034144e-01  0.0000000000000000e+00 
-2.1226915205034144e-01 -4.1799212095728078e-01  0.0000000000000000e+00  0.0000000000000000e+00  0.0000000000000000e+00  0.0000000000000000e+00 
-2.6874110790257692e-02 -1.4603346408373769e-01  0.0000000000000000e+00 -1.4603346408373769e-01 -4.0314488693175432e-01  0.0000000000000000e+00 
 0.0000000000000000e+00  0.0000000000000000e+00  0.0000000000000000e+00 -1.7373478546806972e-01 -2.5482203712629636e-01  0.0000000000000000e+00 
-2.5482203712629636e-01 -3.7375531670205170e-01  0.0000000000000000e+00  0.0000000000000000e+00  0.0000000000000000e+00  0.0000000000000000e+00 
-8.8498755492574147e-02 -1.8276025940239302e-01  0.0000000000000000e+00 -1.8276025940239302e-01 -3.6083036234977223e-01  0.0000000000000000e+00 
 0.0000000000000000e+00  0.0000000000000000e+00  0.0000000000000000e+00 -3.3025885643477811e-03 -1.1784671517365709e-01  0.0000000000000000e+00 
-1.1784671517365709e-01 -3.5172402376721679e-01  0.0000000000000000e+00  0.0000000000000000e+00  0.0000000000000000e+00  0.0000000000000000e+00 
 4.2836272620369026e-01 -2.6199171666586019e-01  0.0000000000000000e+00 -2.6199171666586019e-01  4.1127727447829811e-02  0.0000000000000000e+00 
 0.0000000000000000e+00  0.0000000000000000e+00  0.0000000000000000e+00  3.8419694169054519e-01 -2.4680329380777036e-01  0.0000000000000000e+00 
-2.4680329380777036e-01  3.2783364907191199e-02  0.0000000000000000e+00  0.0000000000000000e+00  0.0000000000000000e+00  0.0000000000000000e+00 
 4.1129956962080949e-01 -2.4240253220514726e-01  0.0000000000000000e+00 -2.4240253220514726e-01  6.2827480968137103e-02  0.0000000000000000e+00 
 0.0000000000000000e+00  0.0000000000000000e+00  0.0000000000000000e+00  3.4103299747375027e-01 -2.2987994366745870e-01  0.0000000000000000e+00 
-2.2987994366745870e-01  2.3045672491282653e-02  0.0000000000000000e+00  0.0000000000000000e+00  0.0000000000000000e+00  0.0000000000000000e+00 
 3.6983652546135048e-01 -2.2632996385279167e-01  0.0000000000000000e+00 -2.2632996385279167e-01  5.5144267599634963e-02  0.0000000000000000e+00 
 0.0000000000000000e+00  0.0000000000000000e+00  0.0000000000000000e+00  3.9779889782780437e-01 -2.2198128071587744e-01  0.0000000000000000e+00 
-2.2198128071587744e-01  8.3710621392060397e-02  0.0000000000000000e+00  0.0000000000000000e+00  0.0000000000000000e+00  0.0000000000000000e+00 
-7.4448289863375816e-02 -2.0466939098297054e-01  0.0000000000000000e+00 -2.0466939098297054e-01 -5.1156558222486281e-01  0.0000000000000000e+00 
 0.0000000000000000e+00  0.0000000000000000e+00  0.0000000000000000e+00 -8.1475320765397929e-02 -2.1856040719257874e-01  0.0000000000000000e+00 
-2.1856040719257874e-01 -5.6012394394448428e-01  0.0000000000000000e+00  0.0000000000000000e+00  0.0000000000000000e+00  0.0000000000000000e+00 
-1.4423383672399218e-01 -2.7301697119658513e-01  0.0000000000000000e+00 -2.7301697119658513e-01 -5.3776700998145388e-01  0.0000000000000000e+00 
 0.0000000000000000e+00  0.0000000000000000e+00  0.0000000000000000e+00 -8.6192925359538777e-02 -2.2931992697818912e-01  0.0000000000000000e+00 
-2.2931992697818912e-01 -6.0732330890759156e-01  0.0000000000000000e+00  0.0000000000000000e+00  0.0000000000000000e+00  0.0000000000000000e+00 
-1.4603500321590862e-01 -2.8625541672921723e-01  0.0000000000000000e+00 -2.8625541672921723e-01 -5.9123992967876171e-01  0.0000000000000000e+00 
 0.0000000000000000e+00  0.0000000000000000e+00  0.0000000000000000e+00 -2.1250357358096494e-01 -3.4774654927615911e-01  0.0000000000000000e+00 
-3.4774654927615911e-01 -5.6906203058535187e-01  0.0000000000000000e+00  0.0000000000000000e+00  0.0000000000000000e+00  0.0000000000000000e+00 
 8.2265192614780336e-01  4.0239832730827346e-01  0.0000000000000000e+00  4.0239832730827346e-01 -1.8450557966224468e-01  0.0000000000000000e+00 
 0.0000000000000000e+00  0.0000000000000000e+00  0.0000000000000000e+00  7.4202965206885441e-01  3.9908088884608778e-01  0.0000000000000000e+00 
 3.9908088884608778e-01 -1.9620608718552132e-01  0.0000000000000000e+00  0.0000000000000000e+00  0.0000000000000000e+00  0.0000000000000000e+00 
 7.9162883535092499e-01  3.9847108128530390e-01  0.0000000000000000e+00  3.9847108128530390e-01 -2.1856299497966850e-01  0.0000000000000000e+00 
 0.0000000000000000e+00  0.0000000000000000e+00  0.0000000000000000e+00  6.6005269259930655e-01  3.9145413599689899e-01  0.0000000000000000e+00 
 3.9145413599689899e-01 -2.0867363790801474e-01  0.0000000000000000e+00  0.0000000000000000e+00  0.0000000000000000e+00  0.0000000000000000e+00 
 7.0674673995904713e-01  3.9342624843106638e-01  0.0000000000000000e+00  3.9342624843106638e-01 -2.3262216469659777e-01  0.0000000000000000e+00 
 0.0000000000000000e+00  0.0000000000000000e+00  0.0000000000000000e+00  7.5790385632375878e-01  3.9232238847043971e-01  0.0000000000000000e+00 
 3.9232238847043971e-01 -2.5494807032015693e-01  0.0000000000000000e+00  0.0000000000000000e+00  0.0000000000000000e+00  0.0000000000000000e+00 
-1.2303989831570133e-01 -3.4610859447710768e-01  0.0000000000000000e+00 -3.4610859447710768e-01 -1.2984344773759147e+00  0.0000000000000000e+00 
 0.0000000000000000e+00  0.0000000000000000e+00  0.0000000000000000e+00 -1.1505701110178787e-01 -3.2402380748283177e-01  0.0000000000000000e+00 
-3.2402380748283177e-01 -1.3216009946161478e+00  0.0000000000000000e+00  0.0000000000000000e+00  0.0000000000000000e+00  0.0000000000000000e+00 
-1.2417539396245940e-01 -3.8307989984525520e-01  0.0000000000000000e+00 -3.8307989984525520e-01 -1.3704849957097682e+00  0.0000000000000000e+00 
 0.0000000000000000e+00  0.0000000000000000e+00  0.0000000000000000e+00 -1.0818279650371003e-01 -3.0067428570858767e-01  0.0000000000000000e+00 
-3.0067428570858767e-01 -1.3399226617440656e+00  0.0000000000000000e+00  0.0000000000000000e+00  0.0000000000000000e+00  0.0000000000000000e+00 
-1.1432516330988118e-01 -3.5743663439070189e-01  0.0000000000000000e+00 -3.5743663439070189e-01 -1.3939102549930258e+00  0.0000000000000000e+00 
 0.0000000000000000e+00  0.0000000000000000e+00  0.0000000000000000e+00 -1.2199829847802969e-01 -4.2018134894943532e-01  0.0000000000000000e+00 
-4.2018134894943532e-01 -1.4471715331979416e+00  0.0000000000000000e+00  0.0000000000000000e+00  0.0000000000000000e+00  0.0000000000000000e+00 
 1.0496678951253611e+00  2.8555495845763113e-01  0.0000000000000000e+00  2.8555495845763113e-01  1.0487858546293369e-01  0.0000000000000000e+00 
 0.0000000000000000e+00  0.0000000000000000e+00  0.0000000000000000e+00  1.0233636145440872e+00  2.7736387934324913e-01  0.0000000000000000e+00 
 2.7736387934324913e-01  1.2083941058010494e-01  0.0000000000000000e+00  0.0000000000000000e+00  0.0000000000000000e+00  0.0000000000000000e+00 
 1.0165410886507009e+00  2.9278754927746281e-01  0.0000000000000000e+00  2.9278754927746281e-01  1.1689848502928443e-01  0.0000000000000000e+00 
 0.0000000000000000e+00  0.0000000000000000e+00  0.0000000000000000e+00  1.0012324682721550e+00  2.6678108304831138e-01  0.0000000000000000e+00 
 2.6678108304831138e-01  1.3724950431759136e-01  0.0000000000000000e+00  0.0000000000000000e+00  0.0000000000000000e+00  0.0000000000000000e+00 
 9.9226606191887856e-01  2.8184514419128270e-01  0.0000000000000000e+00  2.8184514419128270e-01  1.3318912566629124e-01  0.0000000000000000e+00 
 0.0000000000000000e+00  0.0000000000000000e+00  0.0000000000000000e+00  9.8129295397577054e-01  2.9608191023346614e-01  0.0000000000000000e+00 
 2.9608191023346614e-01  1.2849442064480773e-01  0.0000000000000000e+00  0.0000000000000000e+00  0.0000000000000000e+00  0.0000000000000000e+00 
-7.4448289863373776e-02 -2.0466939098296819e-01  0.0000000000000000e+00 -2.0466939098296819e-01 -5.1156558222486104e-01  0.0000000000000000e+00 
 0.0000000000000000e+00  0.0000000000000000e+00  0.0000000000000000e+00 -1.3150681980228582e-01 -2.4894668217833876e-01  0.0000000000000000e+00 
-2.4894668217833876e-01 -4.8364401976255272e-01  0.0000000000000000e+00  0.0000000000000000e+00  0.0000000000000000e+00  0.0000000000000000e+00 
-5.7227774165039470e-02 -1.8155429671347814e-01  0.0000000000000000e+00 -1.8155429671347814e-01 -4.6238045539681277e-01  0.0000000000000000e+00 
 0.0000000000000000e+00  0.0000000000000000e+00  0.0000000000000000e+00 -1.9443769658772730e-01 -2.9562805564853706e-01  0.0000000000000000e+00 
-2.9562805564853706e-01 -4.4948066050223129e-01  0.0000000000000000e+00  0.0000000000000000e+00  0.0000000000000000e+00  0.0000000000000000e+00 
-1.1558281140878467e-01 -2.2218810521110449e-01  0.0000000000000000e+00 -2.2218810521110449e-01 -4.2944801538527966e-01  0.0000000000000000e+00 
 0.0000000000000000e+00  0.0000000000000000e+00  0.0000000000000000e+00 -3.6234544262452074e-02 -1.5574804457034178e-01  0.0000000000000000e+00 
-1.5574804457034178e-01 -4.1372882376561887e-01  0.0000000000000000e+00  0.0000000000000000e+00  0.0000000000000000e+00  0.0000000000000000e+00 
 7.8054967442980863e-02 -1.7543202491877424e-01  0.0000000000000000e+00 -1.7543202491877424e-01 -3.3486914859453326e-01  0.0000000000000000e+00 
 0.0000000000000000e+00  0.0000000000000000e+00  0.0000000000000000e+00  4.3250778783158791e-02 -1.5275225757360747e-01  0.0000000000000000e+00 
-1.5275225757360747e-01 -3.6326441829325407e-01  0.0000000000000000e+00  0.0000000000000000e+00  0.0000000000000000e+00  0.0000000000000000e+00 
 6.6990192589296421e-02 -1.6315630332347536e-01  0.0000000000000000e+00 -1.6315630332347536e-01 -3.0887728982516399e-01  0.0000000000000000e+00 
 0.0000000000000000e+00  0.0000000000000000e+00  0.0000000000000000e+00  1.1738142288593304e-02 -1.3005070303194732e-01  0.0000000000000000e+00 
-1.3005070303194732e-01 -3.9355155397648589e-01  0.0000000000000000e+00  0.0000000000000000e+00  0.0000000000000000e+00  0.0000000000000000e+00 
 3.4934797800352177e-02 -1.4074418761153734e-01  0.0000000000000000e+00 -1.4074418761153734e-01 -3.3526624118549775e-01  0.0000000000000000e+00 