<VTKFile type="UnstructuredGrid" version="1.0" byte_order="LittleEndian" header_type="UInt64">
<UnstructuredGrid>
<Piece NumberOfPoints="7326" NumberOfCells="4884">
<PointData>
<DataArray type="Float64" Name="σx" NumberOfComponents="1" format="ascii">
 1.9894599815760148e+00  2.0005264343553106e+00  1.9924404504077009e+00  2.0045411864243077e+00  2.0138403766943616e+00  2.0060292319890878e+00 
 3.4556118612937203e-01  2.9033208470708122e-01  2.1930338093646265e-01  2.4054323024975688e-01  1.6774664122826560e-01  8.7808309863350045e-02 
 1.0980746758906670e+00  1.0505031438789303e+00  1.0314028155134365e+00  9.9968887912949689e-01  9.8173981428107837e-01  9.6579989377905662e-01 
 2.6257593350496760e+00  2.6974654782213086e+00  2.8765757834106642e+00  2.7576099910979792e+00  2.9473902457159489e+00  3.1600832529522962e+00 
 5.9833240348734183e-02  4.1735637313583672e-02  2.3964759503767630e-02  2.4135835173061171e-02  6.3091548144754593e-03 -9.0401923912678817e-03 
 1.6325850891752522e+00  1.6544821000676404e+00  1.5748274735184913e+00  1.6753047486507788e+00  1.5926942260355146e+00  1.5134854599928336e+00 
 4.6331031009443286e+00  4.8652953124677030e+00  4.7948925005068022e+00  5.1185764034705219e+00  5.0435184075298132e+00  4.9588673362031974e+00 
 2.3908289194974772e-01  1.2198259784187875e-01  1.9054045323269894e-01  1.2742536152133034e-03  7.7751155952640774e-02  1.4743110482564045e-01 
 4.4971637633197459e-01  4.0712448591086492e-01  4.7818285474978106e-01  3.6742269471076933e-01  4.3539962284898376e-01  5.0406576260472069e-01 
 1.4610327442505255e+00  1.5368792289546309e+00  1.4938712294522811e+00  1.6100416293733351e+00  1.5663649721808239e+00  1.5250248610044372e+00 
 1.9174341677772921e+00  1.8975166263042300e+00  1.8612256701434144e+00  1.8718700612105952e+00  1.8305222150243048e+00  1.7932026711239333e+00 
 5.9833240348734565e-02  2.3964759503768411e-02  4.0654545967519010e-02 -9.0401923912650575e-03  7.2518669081675733e-03  2.4479070815274478e-02 
-1.2559288821864184e-01 -1.2304885752840654e-01 -1.2739718229311872e-01 -1.1995573713769579e-01 -1.2545307562397723e-01 -1.2654772737179462e-01 
-9.1798273251790977e-02 -9.0131321523426136e-02 -9.6394491643377461e-02 -8.8612296174031574e-02 -9.6072729166029006e-02 -1.0037854674077637e-01 
 7.1237247381677327e-01  7.1424078682493186e-01  6.6526785915421371e-01  7.1831123104688943e-01  6.6537462526743596e-01  6.1585330725365584e-01 
-4.6400031246100724e-02 -1.0700553527622610e-01 -2.6874110790257692e-02 -1.7373478546806972e-01 -8.8498755492574160e-02 -3.3025885643477811e-03 
 4.2836272620369026e-01  3.8419694169054519e-01  4.1129956962080949e-01  3.4103299747375027e-01  3.6983652546135043e-01  3.9779889782780437e-01 
-7.4448289863375816e-02 -8.1475320765397929e-02 -1.4423383672399218e-01 -8.6192925359538777e-02 -1.4603500321590865e-01 -2.1250357358096494e-01 
 8.2265192614780336e-01  7.4202965206885441e-01  7.9162883535092499e-01  6.6005269259930655e-01  7.0674673995904702e-01  7.5790385632375878e-01 
-1.2303989831570133e-01 -1.1505701110178787e-01 -1.2417539396245940e-01 -1.0818279650371003e-01 -1.1432516330988118e-01 -1.2199829847802969e-01 
 1.0496678951253611e+00  1.0233636145440872e+00  1.0165410886507009e+00  1.0012324682721550e+00  9.9226606191887867e-01  9.8129295397577054e-01 
-7.4448289863373776e-02 -1.3150681980228582e-01 -5.7227774165039470e-02 -1.9443769658772730e-01 -1.1558281140878467e-01 -3.6234544262452074e-02 
 7.8054967442980863e-02  4.3250778783158791e-02  6.6990192589296421e-02  1.1738142288593304e-02  3.4934797800352177e-02  5.8734081886261578e-02 
 9.3430554517071818e-01  9.4798359533216792e-01  9.4850388654200668e-01  9.6047924476122903e-01  9.6061385290614354e-01  9.6136887260997139e-01 
-3.6341859724768534e-02 -7.4646918055094713e-02 -8.6041512402423720e-02 -1.1737129513548440e-01 -1.2677125550477528e-01 -1.3316417231155586e-01 
 2.5743397288613075e+00  2.6947561779553975e+00  2.8041471040886337e+00  2.8218211745303394e+00  2.9472674009243858e+00  3.0611544053349000e+00 
 1.6972958645627754e+00  1.6068473217131576e+00  1.7117060718367447e+00  1.4998123660508991e+00  1.6135189231484959e+00  1.7287266436785291e+00 
 1.3523485548755845e+00  1.4070621582598917e+00  1.3483879911375225e+00  1.4668044746995406e+00  1.4007351651994784e+00  1.3373978469865919e+00 
 5.0062924590985480e-01  4.6582675352265723e-01  5.6398094741564431e-01  4.2665781143058085e-01  5.3191674626542484e-01  6.3069503385767889e-01 
 1.1117669250407858e+00  1.1078292582980993e+00  1.0818776994120411e+00  1.1017615252030153e+00  1.0804735917315793e+00  1.0558830315010461e+00 
-2.5752544675391519e-02 -8.0722739909943414e-02 -6.7679490401831757e-02 -1.3440240887948504e-01 -1.2640693213092838e-01 -1.1524400769097221e-01 
 1.8792355787896217e-01  1.6322792686331694e-01  1.3830155393995072e-01  1.3641427581121549e-01  1.1295510786694664e-01  9.1383162103601978e-02 
 1.1983524828884595e+00  1.0806700016346171e+00  1.1639696963161759e+00  9.4920287781755275e-01  1.0339669454490030e+00  1.1232712856704747e+00 
 1.5648448248435540e+00  1.5246277533135846e+00  1.6055700784668707e+00  1.4864086965324010e+00  1.5601077246148010e+00  1.6389950369291135e+00 
 1.5069603993721343e+00  1.5241575535790557e+00  1.5916251394751151e+00  1.5412452029480683e+00  1.6121831877842232e+00  1.6802697106188045e+00 
-1.4837828412214144e-01 -1.3639738240465576e-01 -1.8216683413678084e-01 -1.2513029634497885e-01 -1.6641240541991073e-01 -2.1245766554260961e-01 
-1.0738947284263257e-01 -9.0199315480561593e-02 -1.5876450322721128e-01 -6.8400759346953333e-02 -1.4315771772356711e-01 -2.1561250621338104e-01 
 7.5871671925614481e-01  7.5840907953680803e-01  7.8733636041698540e-01  7.6243903082764408e-01  7.9021939135522101e-01  8.1634839217716271e-01 
-1.0209229916060734e-01 -1.1271681280160124e-01 -9.6286102561041781e-02 -1.2508750473794153e-01 -1.0840945042714725e-01 -8.7743268333191196e-02 
-4.9449615922932011e-02 -3.1150758393092393e-02 -1.0876756425051388e-01 -9.1623550536317818e-03 -9.1545987995283892e-02 -1.7373478147428212e-01 
 8.2819066191952811e-02  6.7986916572018760e-02  5.0136968728217324e-02  5.2809342076028609e-02  3.5606125517446068e-02  2.0005673066022290e-02 
 1.4332438629324555e+00  1.4164117958132232e+00  1.4873306133090765e+00  1.3922892007750529e+00  1.4633441678560510e+00  1.5417321341740198e+00 
 4.8658628863901017e+00  5.0841178365321618e+00  5.0980492117212046e+00  5.3148021657344175e+00  5.3363611049237889e+00  5.3465504460590054e+00 
 2.5821231889024134e+00  2.6737993690964643e+00  2.7936660666909936e+00  2.7523873176040081e+00  2.8846394063978038e+00  3.0273515706446941e+00 
 2.5241639852356186e+00  2.6420418798824312e+00  2.5953286573210228e+00  2.7821825788171748e+00  2.7283776926480310e+00  2.6580702736929052e+00 
 2.4522319217300281e-01  1.6506525181549447e-01  1.1637156025194584e-01  9.0299808018476119e-02  3.7932835556384624e-02 -1.8549303319746576e-02 
 2.5884212752074642e+00  2.6959577771242009e+00  2.7135416053206955e+00  2.8160718023647529e+00  2.8410453724963745e+00  2.8450087088165597e+00 
 1.8407512563126320e+00  1.7806719864604632e+00  1.8001471484510128e+00  1.7145815184505853e+00  1.7310525998567834e+00  1.7500865251315478e+00 
 1.5069603993721326e+00  1.4418186653688909e+00  1.5241575535791032e+00  1.3735325317158109e+00  1.4557990614031944e+00  1.5412452029480008e+00 
 1.7504192984968522e-01  2.4841794030315215e-01  1.2464144152981621e-01  3.1430150097894194e-01  1.9932164666822111e-01  8.0103482730249323e-02 
-3.7139480650891281e-02 -1.4466451348961563e-02 -9.8197649775854906e-02  1.2529338273909922e-02 -7.6363706475312751e-02 -1.6540843451803919e-01 
 1.5013309878368030e-02 -1.2791720421100904e-02 -7.4943924443552606e-02 -3.6234544262465626e-02 -9.7657347523623039e-02 -1.6540843657892842e-01 
 1.2449522429553848e+00  1.2122707908023092e+00  1.2171195600628615e+00  1.1780469366493824e+00  1.1821029909584626e+00  1.1857106472664063e+00 
 1.6128844557665609e+00  1.5387234500398670e+00  1.5469170550949158e+00  1.4626705969272127e+00  1.4663816020182689e+00  1.4694684909296518e+00 
 6.0806587000890100e-01  6.3533188435687049e-01  5.8686248353203485e-01  6.6697978883545384e-01  6.1600022088066719e-01  5.6493020123806192e-01 
-9.0868195825385412e-02 -9.1063323811618566e-02 -9.7960202897002704e-02 -9.2219178340117183e-02 -9.9957200597730070e-02 -1.0391981400279900e-01 
 4.7276037322518913e+00  4.9720429827349841e+00  4.9196215188161494e+00  5.2381829627378149e+00  5.1835948763113535e+00  5.1185764034703523e+00 
 4.8994304351621745e+00  5.0672737074391705e+00  5.1006662406043821e+00  5.2381829037957646e+00  5.2820082801093058e+00  5.3148021657342257e+00 
 1.3533519013775728e+00  1.2453390993546309e+00  1.3330482591151465e+00  1.1232712856705322e+00  1.2143723217636093e+00  1.3090371785436463e+00 
 4.7674562018894235e+00  4.5399217132987530e+00  4.7062952735006194e+00  4.3301735800918975e+00  4.4801966269666638e+00  4.6333737658890035e+00 
-4.9449615922930651e-02 -1.2536384435508224e-01 -6.0256665873581861e-02 -1.9995072927290169e-01 -1.3104013977527995e-01 -6.8400759346937637e-02 
 5.5095270357349624e-02 -3.9781331717180707e-02  2.0580984551351548e-02 -1.3563639697551166e-01 -6.9541362508074259e-02 -9.1623550536164416e-03 
 7.5907983114653221e-01  6.1252532775931678e-01  6.7524567307761685e-01  4.5662155394136716e-01  5.3032382777937415e-01  5.9762393911763489e-01 
 8.1542348658868158e-01  7.5782052810632494e-01  8.2589710838158326e-01  7.0325551269829145e-01  7.7073342884885243e-01  8.3624525168405750e-01 
 1.0999842753096718e+00  1.0167980162198442e+00  9.5718911392748240e-01  9.4077823562970764e-01  8.7493720220921212e-01  8.0149146563039653e-01 
-1.2570347141056332e-01 -1.2729576321259853e-01 -1.2552516602648531e-01 -1.2577328284032369e-01 -1.2574094562175642e-01 -1.2402237272390915e-01 
 1.0385777695299523e+00  8.9673868355924691e-01  9.4533876285018037e-01  7.4268874084534842e-01  8.0296890020509415e-01  8.5812104815363921e-01 
 5.9858254529016242e-01  5.3092960207730411e-01  6.7320206353992273e-01  4.5662154486887713e-01  6.1037370694137461e-01  7.5275822210880439e-01 
-2.7014886603430543e-03  1.3929613645280153e-03 -2.3807888528882538e-02  7.8464232045369099e-03 -1.7635426173713463e-02 -4.1788875872143340e-02 
 2.5187056014802529e+00  2.5415321478393635e+00  2.6247275131701899e+00  2.5568193474751908e+00  2.6600555914537987e+00  2.7448864116535359e+00 
 9.6958991842583131e-01  9.5317961253855377e-01  9.6542999696763188e-01  9.3401962344593503e-01  9.4823162032053199e-01  9.6136887260997139e-01 
-4.4561599306279752e-02 -4.9118600795352158e-02 -6.3682350294532397e-02 -5.0652253538017979e-02 -6.7275788986401575e-02 -8.1121748213779404e-02 
 1.6295124561992516e-01  2.4950267404365911e-01  2.1155569061356108e-01  3.3011467365647423e-01  2.9885145534547058e-01  2.6412053212681519e-01 
-9.4930711353078123e-02 -8.9548169288195686e-02 -8.7454751289996649e-02 -8.5130457012802266e-02 -8.1361369538965361e-02 -7.7442640973645796e-02 
 1.0708580595075262e-01  1.2055850763261426e-01  8.4303654071857831e-02  1.3780579604653884e-01  9.9093134308447836e-02  6.2262588071885616e-02 
 4.1892590043818873e-01  4.9766101378569372e-01  3.5148374814253786e-01  5.8232345525442886e-01  4.3478939441762621e-01  2.7776202432634217e-01 
 6.8576875748473465e-01  6.7250504327524319e-01  6.8892659539222967e-01  6.6151992570677143e-01  6.7947972071187235e-01  6.9543780654933895e-01 
 1.0460414632627026e+00  1.0536253375315185e+00  1.0069856917572753e+00  1.0622961439687326e+00  1.0117176679489435e+00  9.6448519735378813e-01 
 1.3898201454463406e+00  1.3549776225543695e+00  1.3178930341202717e+00  1.3174691117087984e+00  1.2813632368379577e+00  1.2477298683426918e+00 
-1.2629589532730107e-01 -1.2266987829637732e-01 -1.2574773821097879e-01 -1.1581486012350481e-01 -1.1990675601192474e-01 -1.2338403206011550e-01 
-9.9707157040675259e-02 -1.0186413771715104e-01 -9.8219204492182285e-02 -1.0477179415190697e-01 -9.9006101790134041e-02 -9.3391359266885646e-02 
-8.5945070025995954e-02 -8.5666756747668021e-02 -9.5181608660452777e-02 -8.5952959360680842e-02 -9.5774140887358514e-02 -1.0237344938470157e-01 
 3.4556118612937664e-01  2.7236889935014302e-01  4.1025827580533092e-01  1.9187381298568568e-01  3.4042820115636474e-01  4.8021249204357108e-01 
 3.4483809137862607e-02  4.6754360143588428e-02  1.3005489733522266e-02  6.0852108396511770e-02  2.4904032951521625e-02 -7.6663854716334245e-03 
 1.6979813802657022e+00  1.6109881187563642e+00  1.6173598078307234e+00  1.5267056765757965e+00  1.5256264742645798e+00  1.5246655696554201e+00 
 4.7588030399422276e-01  5.1038490517472745e-01  4.6887216411239646e-01  5.4637598769751483e-01  5.0557600179737627e-01  4.6314133441680694e-01 
 2.4668184867935716e+00  2.5555451925584163e+00  2.4846067554375129e+00  2.6580702736929855e+00  2.5800889698847653e+00  2.4897684096070831e+00 
 2.0582785912909496e+00  1.9933293336889002e+00  2.0836676032865733e+00  1.9401670326828575e+00  2.0192030641233729e+00  2.1006018117364826e+00 
 7.2797771389988941e-01  6.9443953739743969e-01  7.1974304411090717e-01  6.6010647572217696e-01  6.8771468930126356e-01  7.1479563111790145e-01 
 7.6712330869845724e-01  7.7798854896726910e-01  7.4750085056445636e-01  7.9144561073011133e-01  7.6045670354827966e-01  7.2797771389988952e-01 
 1.1221525503343799e+00  1.1275059476976808e+00  1.0358900852410520e+00  1.1325565226110048e+00  1.0347522349275116e+00  9.3903854077374460e-01 
 1.9344752368016949e+00  1.9413167379764826e+00  2.0114837235498335e+00  1.9476123141179527e+00  2.0124611140503337e+00  2.0882988101144280e+00 
 8.5961931745668851e-01  8.8543580216624362e-01  8.6260762033539362e-01  9.1447454961634955e-01  8.9051189436926104e-01  8.6576561907867011e-01 
-1.2303989831570147e-01 -1.3295770620787808e-01 -1.2696527901774690e-01 -1.4467187339784099e-01 -1.3872025569666824e-01 -1.2934073381448288e-01 
 2.3908289194974680e-01  2.8971120891370866e-01  1.6699246614372101e-01  3.4613323511758570e-01  2.1947387620505268e-01  8.7808311549244886e-02 
 1.5648448248435525e+00  1.4871613566547854e+00  1.5246277533136292e+00  1.4143030136547190e+00  1.4531558541784269e+00  1.4864086965323329e+00 
 1.7485966251593068e+00  1.7898963886195436e+00  1.8322980745042057e+00  1.8219447630661927e+00  1.8632323970872866e+00  1.9104460952632947e+00 
 5.6304992250600117e-01  5.4719709831877339e-01  6.2300878219095202e-01  5.3232327202110241e-01  6.0501953269077480e-01  6.8183624964899703e-01 
 1.1471327166792364e+00  1.0637168177747123e+00  1.1243818627548110e+00  9.7479492746391772e-01  1.0346098713119227e+00  1.0975390537823142e+00 
 1.6455554378174460e+00  1.6822917100525430e+00  1.6105848225119328e+00  1.7203396147675827e+00  1.6500618633555921e+00  1.5727703722664554e+00 
 2.4266808772444568e+00  2.5292981513094976e+00  2.6635250404123054e+00  2.6257593350497919e+00  2.7720434315977691e+00  2.9267758534870723e+00 
-1.4837828412214049e-01 -1.8277839676055824e-01 -1.4009530746501048e-01 -2.2056407059703634e-01 -1.7588719236710335e-01 -1.2904922004931749e-01 
 2.2040779065593639e+00  2.2649415571638616e+00  2.2029026916120005e+00  2.3248372916385400e+00  2.2477655003859476e+00  2.1812275116649538e+00 
 5.9858254529015720e-01  5.3619953880734883e-01  4.6065405198209936e-01  4.8021249204357280e-01  4.0170335601285057e-01  3.1452055071387092e-01 
 7.0764532580940209e-01  6.4113639550556045e-01  6.8990733347478184e-01  5.7387365537422486e-01  6.2023093336106017e-01  6.7160752139471491e-01 
 1.8490508071619716e+00  1.8301186823000795e+00  1.7886504449223231e+00  1.8128720226519481e+00  1.7659888214662083e+00  1.7203396147675347e+00 
 4.2748370804672381e-01  3.7790872170628664e-01  4.3470507355004295e-01  3.3147596860150130e-01  3.8700243137665735e-01  4.4174238624569928e-01 
 1.3898201454463412e+00  1.4323636682466612e+00  1.3549776225544108e+00  1.4770780888628121e+00  1.3963941792702856e+00  1.3174691117087576e+00 
-4.7929602014187507e-02 -4.1661650643421276e-02 -6.3110789274229612e-02 -3.3013694193429588e-02 -5.6321215222489826e-02 -7.6706407653308384e-02 
 7.5871671925614426e-01  7.2782392044852140e-01  7.5840907953683112e-01  6.9512451801584019e-01  7.2824737969139319e-01  7.6243903082761155e-01 
 2.2347794961133189e+00  2.2984925320563412e+00  2.3561864076486723e+00  2.3716609921776661e+00  2.4397253233518397e+00  2.4866195217372256e+00 
 2.0144750100005933e+00  2.0243551459989608e+00  2.0231029901903148e+00  2.0330469174745120e+00  2.0459284707499208e+00  2.0403063268891479e+00 
 1.5727703722664563e+00  1.6500618633555397e+00  1.6145952305741544e+00  1.7203396147675905e+00  1.6910068807905472e+00  1.6585397313329586e+00 
 1.8374004692588728e+00  1.7389592580749544e+00  1.8053686982735206e+00  1.6430076830728793e+00  1.7080238425231109e+00  1.7722320591320120e+00 
 9.4523343730904508e-01  9.4740449629569357e-01  9.0259380528335365e-01  9.5024436184080208e-01  9.0272580135299840e-01  8.5926937873457554e-01 
 1.7145815184505202e+00  1.6570216351261899e+00  1.7310525998567821e+00  1.5885884420413552e+00  1.6716237790977355e+00  1.7500865251315478e+00 
 1.2563681706057062e+00  1.2195820919325597e+00  1.2184088732111718e+00  1.1836284576802709e+00  1.1872912453262787e+00  1.1834753771493696e+00 
 7.9391296347102291e-01  7.2149054420646386e-01  8.0340955347964471e-01  6.5226556409613967e-01  7.3377661534557170e-01  8.1090863634237431e-01 
-4.7929602014187195e-02 -6.7177340758914295e-02 -5.0441083534694245e-02 -8.3762209885942768e-02 -6.8062826813174437e-02 -5.0652253538013579e-02 
-1.1872177594880916e-01 -1.2240235938302779e-01 -1.1708387631806307e-01 -1.2402237272391252e-01 -1.2025756418449354e-01 -1.1436879986843539e-01 
 1.0999842753096776e+00  1.0544007490858254e+00  1.1933959264884362e+00  1.0046522379449099e+00  1.1553732863601440e+00  1.2926690006628390e+00 
 9.3430554517071818e-01  9.2543449067740802e-01  9.4798359533219778e-01  9.1699825043950345e-01  9.4033375989783186e-01  9.6047924476119417e-01 
 1.6184159976837478e-01  1.6553679792099890e-01  1.3542902737641410e-01  1.7196955599010402e-01  1.4186110567229665e-01  1.1146735746354154e-01 
 1.5013309878370924e-02 -5.1111037537341683e-02  4.5024776668001122e-02 -1.2402507841282316e-01 -2.1344184213413636e-02  8.0103482730249323e-02 
 1.2247689901981007e+00  1.0876530352540053e+00  1.1287305196134336e+00  9.3777601018902335e-01  9.9039560197131105e-01  1.0385777695299543e+00 
 5.5095270357348569e-02  8.8682610817893623e-02 -1.1401702523398309e-02  1.2717596503271519e-01  2.2501798176310667e-02 -8.4337968080525863e-02 
 4.2836272620369026e-01  4.6364230474757812e-01  4.1515592648745375e-01  5.0241577814048111e-01  4.5245513986044855e-01  4.0215133748201964e-01 
 1.2309520043794540e+00  1.2578046896885626e+00  1.3133041893114688e+00  1.2804928148886789e+00  1.3347358899060722e+00  1.3923205189511434e+00 
 2.1711691561575757e+00  2.2220494278347096e+00  2.1251605326015581e+00  2.2811173794651491e+00  2.1729684195744241e+00  2.0609809544244126e+00 
 1.7133101739357570e-01  1.3427147604295311e-01  1.6164628292129007e-01  9.9262528246450446e-02  1.2639140692397724e-01  1.5350944702941760e-01 
 1.7504192984968697e-01  9.2518730028786106e-02  2.0557548441244514e-01  1.2742265826727107e-03  1.2264934729470457e-01  2.4054323024976262e-01 
 1.4815465381322551e-01  1.6369074463440053e-01  1.2956864846084709e-01  1.8119889548125784e-01  1.4629251798573906e-01  1.1163575533139387e-01 
 1.0338598107778194e+00  9.7366298898519177e-01  9.5687165924308371e-01  9.1681022685971580e-01  8.9770737404959855e-01  8.7667062094186010e-01 
 1.5674632802077335e+00  1.4833337008034755e+00  1.4994184562450505e+00  1.3967354089779860e+00  1.4084025534270976e+00  1.4205309207357544e+00 
 7.0764532580940098e-01  6.6231080349340332e-01  6.4113639550557688e-01  6.2114608461970888e-01  5.9794918950357479e-01  5.7387365537419488e-01 
 1.6806397491114231e+00  1.5976519080929323e+00  1.6885476434144921e+00  1.4988041464731643e+00  1.5975135846313806e+00  1.6972958645627749e+00 
 1.5567783125298368e-01  1.3172358562413364e-01  1.0948836741824942e-01  1.1028075024127654e-01  8.8143220507511388e-02  6.6060449932241957e-02 
 1.7512509935493974e+00  1.7010084156490706e+00  1.7705685408046030e+00  1.6396229925471897e+00  1.7184711026634261e+00  1.7932131318263236e+00 
 1.0275706517038694e+00  1.0168367844776751e+00  1.0209886645663848e+00  1.0084180381511270e+00  1.0112980207448468e+00  1.0137790297410074e+00 
 3.7678434479925804e-01  4.6030099055679352e-01  3.8909208206165585e-01  5.4081514956369481e-01  4.6745748283965483e-01  3.9959776095440069e-01 
 1.7504192984968334e-01  1.2464144152981303e-01  5.4501755995203342e-02  8.0103482730238137e-02  9.1599868885449201e-03 -6.8911020170918796e-02 
 2.3157007083647754e+00  2.1940911068824023e+00  2.2516209156489739e+00  2.0643567569719812e+00  2.1099289033284401e+00  2.1633375359249438e+00 
 9.1974769561438419e-01  1.0036697983124843e+00  8.6332330975409777e-01  1.0931095563137208e+00  9.5329772270284652e-01  8.0149151021994480e-01 
 1.9680053230770198e-01  1.6306730162646299e-01  1.9047533866099889e-01  1.2919592703482310e-01  1.5638407452749731e-01  1.8704080485293759e-01 
 1.6725637751065245e+00  1.5381609056918970e+00  1.5479373439763842e+00  1.3873943064446790e+00  1.4081925888685871e+00  1.4280320797592971e+00 
 1.6046435890916608e+00  1.6190803136274936e+00  1.6833252904641061e+00  1.6348685374070053e+00  1.6978140130332993e+00  1.7605938064106492e+00 
 1.2342390783269619e+00  1.3089544707975400e+00  1.2615463969227891e+00  1.3828068222793526e+00  1.3382794256428749e+00  1.2907084809636287e+00 
 9.9968887912946391e-01  9.2989894431397402e-01  9.8173981428107837e-01  8.6154284337679776e-01  9.1530916777768945e-01  9.6579989377905662e-01 
-3.5091768916772480e-02  6.3792425594883526e-03  1.6439110410293740e-02  5.3884159825599125e-02  5.9714310884547747e-02  6.5061734995714882e-02 
 7.6712330869845702e-01  7.4750085056443416e-01  7.4121863683557365e-01  7.2797771389991472e-01  7.1974304411090728e-01  7.1479563111790145e-01 
 9.5093963465852571e-01  9.6128876518796114e-01  9.6685312727802319e-01  9.7152263532228766e-01  9.7525786993844943e-01  9.7946436580993024e-01 
 7.3543934301434549e-02  7.1228012052415218e-02  4.4030014133329590e-02  7.0343972992907469e-02  4.3231958776227521e-02  1.6787559611469851e-02 
 1.1117669250407862e+00  1.0822222599740781e+00  1.1139234180066317e+00  1.0496678951254059e+00  1.0798377707055582e+00  1.1140824053416887e+00 
 8.2265192614780525e-01  7.9162883535090267e-01  8.6806267131151926e-01  7.5790385632380053e-01  8.3861146419108179e-01  9.1681022685968638e-01 
 1.4007200690476340e+00  1.3804823972916591e+00  1.4664553785430963e+00  1.3614816748372884e+00  1.4453623763020245e+00  1.5286352246521295e+00 
 8.2265192614780225e-01  7.7026020698643527e-01  7.4202965206887361e-01  7.2249749344561898e-01  6.9231629646498383e-01  6.6005269259927346e-01 
 2.4522319217300648e-01  1.5907013559525474e-01  2.6277127059166505e-01  6.2970964219796768e-02  1.7525572632069708e-01  2.8470343646055862e-01 
 8.2819066191953256e-02  5.0136968728217254e-02  7.1181306793927951e-02  2.0005673066026835e-02  4.0293153489400046e-02  6.0852108396515649e-02 
 1.1835114674721783e+00  1.1650018636750787e+00  1.1081674445515455e+00  1.1481027883928576e+00  1.0933311059474913e+00  1.0338598107778210e+00 
 2.0045411864242362e+00  2.0306549990578486e+00  2.0138403766943607e+00  2.0715274495076881e+00  2.0399505455439528e+00  2.0060292319890878e+00 
 3.0437545064223563e+00  3.1852676664666180e+00  3.0551969497042135e+00  3.3238217923334998e+00  3.1812957929833390e+00  3.0548242849587464e+00 
 2.3197269577428403e+00  2.3449780731514327e+00  2.4431835463871074e+00  2.3535995047960054e+00  2.4510651087614170e+00  2.5660109880259823e+00 
 1.1630465704832422e+00  1.1517024547211456e+00  1.1305771001448037e+00  1.1386258984416273e+00  1.1220104054971198e+00  1.1017615252029802e+00 
 1.3214426334299019e+00  1.1704080893037956e+00  1.2040467770330263e+00  1.0046522305484411e+00  1.0506757844822616e+00  1.0931095563137083e+00 
 9.7711695845281632e-01  9.8584350257886233e-01  9.5049258809015336e-01  9.9364170163142163e-01  9.5671161908732871e-01  9.2255533371694642e-01 
 5.3897450358795740e-01  5.3856512607421247e-01  4.8409843096621530e-01  5.3822838559698027e-01  4.8162534606087015e-01  4.2748370804672370e-01 
 4.1157744605684510e-01  3.8221796741005426e-01  3.9529068387294647e-01  3.5153379370389598e-01  3.6492718211398417e-01  3.8209068532801327e-01 
 7.1920622546539348e-01  7.2755302035432212e-01  7.2959632022821141e-01  7.3753389885639475e-01  7.3643917235107881e-01  7.3930231842638217e-01 
 5.6493020123806270e-01  6.1600022088064732e-01  5.9558854353068524e-01  6.6697978883545972e-01  6.4908278761056015e-01  6.3073604792838900e-01 
 8.6440754538451581e-01  8.5578262249248582e-01  8.4124677393631797e-01  8.4913581524346693e-01  8.3501881847513926e-01  8.2036117390267072e-01 
 2.1484584984129005e+00  2.2003039418232069e+00  2.2669623209786804e+00  2.2312320933936376e+00  2.3026449357541434e+00  2.3877859856544159e+00 
 7.6151966953061434e-01  7.4114192624778441e-01  7.7775388066588980e-01  7.1888192329880096e-01  7.5692189549853295e-01  7.9677641226296148e-01 
 1.3735325317157454e+00  1.3073202535662412e+00  1.3860314595819747e+00  1.2383031868820118e+00  1.3173222531317550e+00  1.3991958976261669e+00 
 6.9101269853535863e-01  6.1468588250250611e-01  5.5609712575323944e-01  5.4431206584151604e-01  4.8148911579790349e-01  4.1300014195343149e-01 
 1.0560737027005349e+00  9.8280288174270880e-01  1.0555588341893132e+00  9.0599926557511978e-01  9.7898338432845977e-01  1.0549437872079221e+00 
 4.2836272620369148e-01  4.7092797632343231e-01  4.6364230474759466e-01  5.1205548567553272e-01  5.0635701061183314e-01  5.0241577814047211e-01 
 9.4077823562968288e-01  8.4403455770509206e-01  7.8743765536293964e-01  7.5275822210881882e-01  6.8905283713330268e-01  6.1882331721055095e-01 
 4.5813497954633953e-01  4.4627814138079580e-01  4.8210392058048607e-01  4.3668360820017382e-01  4.7268201868737175e-01  5.0751597374499402e-01 
 2.2040779065593661e+00  2.2613434435443964e+00  2.2649415571639340e+00  2.3277243586426888e+00  2.3375471700486306e+00  2.3248372916384685e+00 
 1.4283952387202663e+00  1.3237893617411274e+00  1.2973087948775821e+00  1.2247689577858170e+00  1.1901871010356690e+00  1.1528845780643333e+00 
 4.4971637633197320e-01  3.8220341324736284e-01  4.0712448591087480e-01  3.1518917979220784e-01  3.4275361404419208e-01  3.6742269471074324e-01 
 7.6712330869845802e-01  7.9591682626780369e-01  7.7798854896729397e-01  8.2284282517221063e-01  8.0628816364667544e-01  7.9144561073008879e-01 
 9.4437924484861557e-01  9.3208383021990104e-01  9.5318480617317214e-01  9.1895114182157245e-01  9.4222375413702741e-01  9.6234429103499897e-01 
 1.7496254354507375e+00  1.6912082969613855e+00  1.6630196285444721e+00  1.6328376654690691e+00  1.6028864126476452e+00  1.5744463690758466e+00 
 2.0403063268891479e+00  2.0721934756395788e+00  2.0557970537277042e+00  2.1091157496601354e+00  2.0995934974213006e+00  2.0700954000957990e+00 
 1.2328468575859988e+00  1.2072957761339635e+00  1.2067567934882135e+00  1.1788783883835787e+00  1.1795030500749089e+00  1.1780469366493393e+00 
 9.7711695845281699e-01  1.0158930885380397e+00  9.8584350257889342e-01  1.0570645360878312e+00  1.0263760417144325e+00  9.9364170163139220e-01 
 1.3553897568975530e+00  1.3333332294309062e+00  1.3104177788154747e+00  1.3037401599484404e+00  1.2830653995094590e+00  1.2650804472368438e+00 
 3.8104581709965596e-01  3.1476429755996516e-01  3.3830825328435465e-01  2.5062435123010968e-01  2.7013298573456634e-01  2.9092836343012407e-01 
 1.8879995645228851e+00  1.8518413694926397e+00  1.9176874971918378e+00  1.8035333973854446e+00  1.8823278861880794e+00  1.9526496785744316e+00 
 1.5674632802077357e+00  1.4994184562450077e+00  1.5775469681702778e+00  1.4205309207358205e+00  1.5055737892217538e+00  1.5885884420412839e+00 
 1.8691772210010076e+00  1.7607696074664063e+00  1.7679008514403085e+00  1.6402034994958929e+00  1.6570058155156537e+00  1.6725637751065274e+00 
 3.8104581709965862e-01  4.0848736155332394e-01  4.4939754770153328e-01  4.3785199771264843e-01  4.8048712271920485e-01  5.1836876887594863e-01 
 2.7659787966417837e-01  2.0579880382546506e-01  1.6745229639195963e-01  1.2717596503272829e-01  8.8682610817897689e-02  5.5095270357350269e-02 
 1.0980746758906672e+00  1.1184501945462197e+00  1.0505031438789612e+00  1.1407163230359860e+00  1.0699192184524671e+00  9.9968887912946425e-01 
 1.7244537674612757e+00  1.6142531539017038e+00  1.6056683447123845e+00  1.5071458552200734e+00  1.4892420377644247e+00  1.4705020649419749e+00 
 2.3563192794639951e+00  2.4724265663949083e+00  2.6136179838762783e+00  2.5821231889025302e+00  2.7364206832374545e+00  2.9025752119645705e+00 
 1.5884037613405413e+00  1.4946680667861052e+00  1.4778695858030404e+00  1.3813710549187099e+00  1.3720915368963311e+00  1.3644071977097543e+00 
 8.8682149009726818e-01  7.8610960741486380e-01  7.3362839149950743e-01  6.9101269853537539e-01  6.3206485925535083e-01  5.6781905927330878e-01 
 8.2318494743953230e-01  8.1862669887882955e-01  8.4171015152360851e-01  8.1501078064124688e-01  8.3586521901088406e-01  8.5961931745668840e-01 
 5.9833240348734509e-02  7.8312737604665963e-02  4.1735637313584532e-02  9.9262528246438719e-02  6.0443282192892925e-02  2.4135835173063249e-02 
 4.1915662774953849e-01  3.5167844540287369e-01  4.7853806038508190e-01  2.7776204293554868e-01  4.1435357255616900e-01  5.4431206584150882e-01 
-9.4930711353078484e-02 -9.6621451880740603e-02 -1.0272671685731216e-01 -9.9297257953791004e-02 -1.0610715938263135e-01 -1.0818279650370465e-01 
-1.1436879986843537e-01 -1.2025756418448978e-01 -1.1754694775295607e-01 -1.2402237272391302e-01 -1.2145564211397041e-01 -1.1811721292510687e-01 
 6.8422907512967346e-01  7.9843773761782777e-01  7.7974243187992776e-01  9.0444367548636939e-01  8.9230786299560205e-01  8.8008388676770277e-01 