<VTKFile type="UnstructuredGrid" version="1.0" byte_order="LittleEndian" header_type="UInt64">
<UnstructuredGrid>
<Piece NumberOfPoints="7320" NumberOfCells="4880">
<PointData>
<DataArray type="Float64" Name="σx" NumberOfComponents="1" format="ascii">
 9.3503868380547517e-01  9.4362826881597428e-01  1.0087964589790406e+00  9.5464317649359176e-01  1.0227373146615835e+00  1.0881437618697087e+00 
 2.3457871017648291e+00  2.1278429940743715e+00  2.3671246986507768e+00  1.9126300608923832e+00  2.1363448054285294e+00  2.3850324442292683e+00 
-1.3368974240847087e-01 -1.3487023760991862e-01 -9.8470419137245052e-02 -1.3408397730072255e-01 -1.0323396912412064e-01 -6.7651862481280162e-02 
 4.2987181785274680e-03  9.2183749956681674e-03  3.5381048224926825e-02  1.6787559611475423e-02  4.3231958776229207e-02  7.0343972992909856e-02 
 4.4177827376860526e+00  4.5775579783117113e+00  4.6477623714992324e+00  4.7285913650789198e+00  4.8199301658396942e+00  4.8994304351621691e+00 
 5.2907973106637585e-02  8.5109222836078968e-02  5.4733538397992880e-02  1.2100003015682281e-01  8.9680173272312244e-02  5.8734081886261578e-02 
 2.0633147315934357e+00  2.0547818161167863e+00  1.9384024206175410e+00  2.0400608256996686e+00  1.9235155502280621e+00  1.8185715277475312e+00 
 2.7671212178248159e+00  2.7045560295340918e+00  2.8756869497310427e+00  2.6409187250622854e+00  2.7879896510697897e+00  2.9567550639760722e+00 
 1.2707113850478651e+00  1.1660010883467302e+00  1.2350568944385663e+00  1.0560737027005860e+00  1.1252509914127076e+00  1.1967161440536891e+00 
 9.4077823562968776e-01  1.1108735962121454e+00  9.9350892116051970e-01  1.2628414740985650e+00  1.1476604593537416e+00  1.0405660255266274e+00 
 2.0249895282785708e+00  2.0582648666125527e+00  2.0001073456193037e+00  2.1059746451215271e+00  2.0274244482881154e+00  1.9661373000433600e+00 
 1.2275199112619422e+00  1.2982136855422755e+00  1.2718655439673798e+00  1.3664347934147101e+00  1.3434414752822117e+00  1.3186262106792219e+00 
 5.1839417713176461e-01  6.1244677839293349e-01  5.4671804980412930e-01  7.0464094581530778e-01  6.3590795493212227e-01  5.7184713206204429e-01 
 1.9286664936069129e+00  1.8553954873887024e+00  1.8705657357759915e+00  1.7619411208228930e+00  1.7894614996558487e+00  1.8128720226518906e+00 
 2.0215717478275930e+00  2.0234982898807008e+00  2.0128144118772151e+00  1.9924776849787631e+00  2.0116359670801911e+00  2.0144750100005928e+00 
 1.1788783883835363e+00  1.2215947123309299e+00  1.1779792969253104e+00  1.2586027312077537e+00  1.2210376227138648e+00  1.1712183049068550e+00 
 5.6169933686855833e-01  6.1309265445957217e-01  6.1526205000267342e-01  6.6729434755568906e-01  6.6694349519704577e-01  6.6517170279679561e-01 
 1.9980365051103544e+00  1.9994828062471048e+00  2.0202521055136216e+00  1.9992852954142784e+00  2.0003330302130333e+00  2.0129137468559044e+00 
 9.2886918789800499e-01  9.2179247556503796e-01  8.5874371207041789e-01  9.1127599145170579e-01  8.4555027142417116e-01  7.8463141843532147e-01 
 2.0062914977039270e+00  2.0427159598327114e+00  1.9816259346532945e+00  2.1366384648043812e+00  1.9962227191267174e+00  1.9395767172442058e+00 
 1.6552633878200269e+00  1.7838429791545831e+00  1.7556703247488763e+00  1.8822823891753151e+00  1.8724476780583843e+00  1.8571971866111019e+00 
 1.3884740616201572e+00  1.3129713332475144e+00  1.2243688403484110e+00  1.2247689901981300e+00  1.1287305196134323e+00  1.0385777695299543e+00 
 1.5447706958642200e+00  1.6110243292187083e+00  1.6420319347633918e+00  1.6770908743613990e+00  1.7163388402769022e+00  1.7475009598939644e+00 
 1.2517926811790454e+00  1.2098341796537118e+00  1.2586560302866716e+00  1.1712183049069049e+00  1.2210376227138682e+00  1.2586027312077175e+00 
 1.5945385833018129e+00  1.5764651796548235e+00  1.5143440626293052e+00  1.5447706958642626e+00  1.4883979140905215e+00  1.4349931438136820e+00 
-8.4079094430309809e-02 -7.1427979114508933e-02 -8.9420199757999599e-02 -5.7413474045463070e-02 -7.8855385787120896e-02 -9.4256897653019228e-02 
 3.9444040528491788e+00  4.0736635899960385e+00  3.8290303627032722e+00  4.2013075970132174e+00  3.9365682739202770e+00  3.7048070425889525e+00 
-1.2654772737179451e-01 -1.2191728020599045e-01 -1.2629177939211747e-01 -1.1199715455273887e-01 -1.1854258332819945e-01 -1.2280596621905537e-01 
 1.2487573288802940e+00  1.2562213937662126e+00  1.2071601957749605e+00  1.2566658081856619e+00  1.2177645040778082e+00  1.1683273303495898e+00 
 4.8352224125725435e-01  5.9105341697840363e-01  5.8108494583119819e-01  6.8727629330803441e-01  6.8597150764953729e-01  6.8547407761912516e-01 
 4.4084056020605136e+00  4.4052342984596660e+00  4.6407029940767730e+00  4.3802352241440161e+00  4.6181386325480371e+00  4.8789140401093389e+00 
 6.2329570837445314e-01  7.5129566491647859e-01  6.0265943162439106e-01  8.8411765233206485e-01  7.4262555788957563e-01  5.8232345525443652e-01 
 1.2707113850478635e+00  1.1840550382533994e+00  1.1660010883467611e+00  1.1009051424656049e+00  1.0793276066549062e+00  1.0560737027005349e+00 
 8.8682149009727573e-01  9.6970088657218456e-01  1.0701229453414765e+00  1.0582275681440227e+00  1.1521143318661367e+00  1.2329523678179117e+00 
 1.5266695961293086e-01  8.8990260422123393e-02  1.8233799912529547e-01  1.5013309878388826e-02  1.1824062468149842e-01  2.1792436363883869e-01 
-9.9268280641229278e-02 -9.6609893893491200e-02 -9.7423876934962517e-02 -8.9065951713649616e-02 -9.4977275586858673e-02 -9.7361501406892217e-02 
 1.9653588308526537e+00  1.8114596275051618e+00  1.7535128818806500e+00  1.6883979527204187e+00  1.5960289189697634e+00  1.5060334855707236e+00 
 2.1493100642898857e+00  2.0132638640536973e+00  2.0348183544736385e+00  1.8854540905579544e+00  1.9111745414880164e+00  1.9344752368016931e+00 
-8.8733778693422145e-03 -2.4944136912354909e-02 -3.9857411402273307e-02 -3.9279321894319527e-02 -5.2613084201595120e-02 -6.5065516758576455e-02 
-1.0738947284263071e-01 -1.2889445329029766e-02 -9.0199315480562897e-02  8.5850008740516653e-02  1.2353948227907228e-02 -6.8400759346937637e-02 
-9.7037480242530810e-02 -9.2295459287124820e-02 -9.9719282168584722e-02 -8.9065951713649977e-02 -9.6609893893494475e-02 -9.9268280641229278e-02 
 3.0406427816653592e+00  2.8950781748339067e+00  3.0070644631208192e+00  2.7671212178249296e+00  2.8756869497310467e+00  2.9567550639760722e+00 
 2.4159888428974449e-01  2.8989222811556947e-01  2.0911361036090861e-01  3.4530391110213221e-01  2.5809157398408650e-01  1.7052550334902647e-01 
 1.6969731935052190e+00  1.7748243579802401e+00  1.7083304774389960e+00  1.8454819731053393e+00  1.7866678806417837e+00  1.7231196715375829e+00 
 1.2879773301478914e+00  1.3960740172032409e+00  1.2552590957948695e+00  1.4875789915451259e+00  1.3581250494434580e+00  1.2270622689757560e+00 
 4.7050606896209296e-01  4.6281125123871208e-01  4.3134341502441059e-01  4.6001444130474128e-01  4.2486654997510698e-01  3.9123610576405304e-01 
-2.5752544675390024e-02  4.6014283786675970e-02 -5.3195382229970310e-03  1.1586029231401133e-01  6.1031701635954602e-02  1.2277783738568795e-02 
 1.7791252253276304e+00  1.9066660560763420e+00  1.8067984819336009e+00  2.0302588433585305e+00  1.9469640097629131e+00  1.8394264247317154e+00 
 1.1835114674721796e+00  1.1023855450305664e+00  1.1722356897365185e+00  1.0150543948231943e+00  1.0857663616128135e+00  1.1590470379542874e+00 
-7.9319732456107919e-02 -6.1258602298251537e-02 -8.2102156294218159e-02 -3.9279321894320887e-02 -6.4446963506628624e-02 -8.4610766534275184e-02 
 1.3348805640846535e+00  1.4026483281392079e+00  1.4554693845601303e+00  1.4557556122241744e+00  1.5087569091958328e+00  1.5687412213768608e+00 
-7.9027845688658713e-02 -9.3843569591476370e-02 -9.0545895645310889e-02 -1.0460991848104745e-01 -1.0327327464084669e-01 -1.0000313388486713e-01 
 1.6455554378174457e+00  1.5711560464588028e+00  1.5863296158777056e+00  1.4915394543851033e+00  1.5104268168593704e+00  1.5286352246521295e+00 
 2.0633147315934370e+00  1.9384024206174859e+00  1.9668807153196834e+00  1.8185715277476020e+00  1.8521825418054385e+00  1.8832596262833430e+00 
 7.1631466217602147e-01  7.5276349414624100e-01  8.1416146395628819e-01  7.8463141843536166e-01  8.4555027142417516e-01  9.1127599145168414e-01 
 1.6552633878200262e+00  1.6342722893101995e+00  1.7838429791546433e+00  1.6163982809754871e+00  1.7558281118266408e+00  1.8822823891752503e+00 
 2.7019653647499997e-01  2.2575759669553971e-01  2.3278004378428896e-01  1.8190591451324289e-01  1.9101485793330386e-01  2.0216388763631771e-01 
 5.9079803340562516e-02  3.8979013595168865e-02  2.2486514373145354e-02  2.1398389960759056e-02  5.4394235246892787e-03 -1.0290530272065279e-02 
 3.3238217923334008e+00  3.3035281215610275e+00  3.1812957929833390e+00  3.2664937123325157e+00  3.1674749604699217e+00  3.0548242849587464e+00 
-9.6632753041452690e-02 -8.8708006939398773e-02 -9.0934941618803680e-02 -7.4806617437295275e-02 -7.8539383227799006e-02 -8.3239550352053909e-02 
-8.9679931931940571e-02 -9.7667335445304287e-02 -1.0497175971957183e-01 -1.0536064303039160e-01 -1.1136258320901604e-01 -1.1581486012350002e-01 
 3.0132052953359905e+00  3.0384423217340646e+00  3.1371021345804597e+00  3.0406427816654902e+00  3.1439728730354788e+00  3.2587520501324043e+00 
 1.0460414632627051e+00  1.0826275849580325e+00  1.1022569923851009e+00  1.1149541656470894e+00  1.1381333460907417e+00  1.1645129818384021e+00 
 6.7118294258285938e-01  6.8889877087911577e-01  5.9254214901342217e-01  7.0464094581530234e-01  6.1244677839295325e-01  5.1839417713176417e-01 
 3.8556841306445121e-02  1.0236084236498354e-01  3.7426253954211147e-02  1.7546779298183485e-01  1.0598203064747645e-01  3.5711390885509335e-02 
 1.1845623959872942e+00  1.1788738242517980e+00  1.2229893602420052e+00  1.1683273303496395e+00  1.2177645040778113e+00  1.2566658081856263e+00 
 1.3445875073835276e+00  1.4253829287373070e+00  1.3803928810427759e+00  1.5006196031320846e+00  1.4621078172453572e+00  1.4183815702096327e+00 
 1.5447706958642176e+00  1.6420319347633363e+00  1.5514402349491392e+00  1.7475009598940103e+00  1.6481764199790547e+00  1.5539507069774128e+00 
 1.8897048018741922e+00  1.9189251064500150e+00  2.0241734213105831e+00  1.9422750928938166e+00  2.0392734609552918e+00  2.1530813491114462e+00 
-1.5737521487269007e-02  3.1884803918032244e-02  7.4503096694513889e-03  7.9237384859440804e-02  5.8899544226574889e-02  3.4358711783458486e-02 
 8.7006722391700431e-02  5.9741038187783264e-02  7.4652125558173618e-02  3.2741296953588059e-02  4.7874811856394986e-02  6.6167306634114742e-02 
-8.4489503123645310e-02 -1.0051954761891316e-01 -9.4802030740127746e-02 -1.1198608214074168e-01 -1.0727543413177876e-01 -1.0261503804271792e-01 
 4.5058771089198246e-01  5.3228057483200908e-01  3.8255356525828488e-01  6.2329570837444681e-01  4.6776487037502784e-01  3.0721421114526953e-01 
 4.2836272620369142e-01  4.1129956962079850e-01  4.7092797632344868e-01  3.9779889782782957e-01  4.5292841332393385e-01  5.1205548567551507e-01 
 9.9097739713986899e-01  9.8893414460111939e-01  9.7819414287075934e-01  9.8693713167732544e-01  9.7490928006424704e-01  9.6047924476119417e-01 
 5.0167693202826047e-01  4.6949466489382535e-01  3.7187303881677103e-01  4.4263871237647062e-01  3.4861744865442829e-01  2.4522319217300592e-01 
 1.0999842753096736e+00  1.1877056348192676e+00  1.0167980162198733e+00  1.2628414740985532e+00  1.1108735962121807e+00  9.4077823562968677e-01 
 5.1205548567551473e-01  4.5292841332391987e-01  4.9117345484186203e-01  3.9779889782782574e-01  4.3688741949082238e-01  4.7452525206195856e-01 
 1.5945385833018140e+00  1.6364366509738197e+00  1.5764651796548723e+00  1.6770908743613810e+00  1.6110243292187598e+00  1.5447706958642176e+00 
 1.9168286233841108e+00  1.8313806953015725e+00  2.0028971561623790e+00  1.7475009598940598e+00  1.9059550014816429e+00  2.0849353442816243e+00 
-1.0209229916060762e-01 -1.0005096328154635e-01 -1.1057093325999252e-01 -9.8478904123677616e-02 -1.0580917981120319e-01 -1.1519337050979950e-01 
 1.4771702028187064e+00  1.3991368566469367e+00  1.4206402190855678e+00  1.3186262106792734e+00  1.3434414752822137e+00  1.3664347934146654e+00 
 1.9286664936069116e+00  1.9009373477073854e+00  1.8553954873887564e+00  1.8608575065767512e+00  1.8094685145304072e+00  1.7619411208228255e+00 
 1.2752511958481314e+00  1.2529216780645052e+00  1.2257715089311338e+00  1.2262055273885204e+00  1.2086465891721678e+00  1.1814070898047824e+00 
 6.6582547216207166e-01  5.7892276593487713e-01  5.4556180463946002e-01  5.0167693202827401e-01  4.6207290248111393e-01  4.1915662774953694e-01 
 7.1927229336612020e-01  6.4760695299533810e-01  5.9504923193270254e-01  5.6413951418658248e-01  5.1179233073702135e-01  4.6432936938481367e-01 
 4.5346922193956773e+00  4.4308821733896311e+00  4.2738859504963180e+00  4.3195422949512920e+00  4.1874815451762606e+00  4.0382141368355473e+00 
 2.0302588433584803e+00  2.1443444075004132e+00  2.1308114330673491e+00  2.2302216321339370e+00  2.2433128682157268e+00  2.2455932964343748e+00 
 4.1733316384799701e-01  4.7041624057026565e-01  3.8520742680593684e-01  5.1839417713176739e-01  4.3596001876218465e-01  3.5539695937508359e-01 
 5.0167693202826069e-01  3.7187303881676520e-01  3.9767460403953997e-01  2.4522319217301894e-01  2.6277127059166583e-01  2.8470343646055862e-01 
 1.4775268911152828e+00  1.5622456646348128e+00  1.4655523509545740e+00  1.6469117902458121e+00  1.5432094615360248e+00  1.4502547487918405e+00 
 7.3543934301436048e-02  9.0702820415955954e-02  1.1136375164780071e-01  1.1028075024128435e-01  1.2999211993702953e-01  1.5005520100250519e-01 
 2.2216995674993517e-01  1.5952708805351890e-01  1.7261103060491667e-01  1.0061211997684814e-01  1.0808744136143693e-01  1.1586029231401632e-01 
 5.2907973106638327e-02  8.3025840193173800e-02  8.5109222836083340e-02  1.1337876740730882e-01  1.1569215024503661e-01  1.2100003015682415e-01 
 8.8008388676770544e-01  8.9230786299557618e-01  1.0111440835263095e+00  9.0444367548639404e-01  1.0157814460345105e+00  1.1342396662277865e+00 
 1.1586029231401525e-01  1.0808744136143239e-01  6.1031701635955692e-02  1.0061211997683793e-01  5.8501445875002646e-02  1.2277783738568795e-02 
 3.9057509686070119e-01  3.5336589071593150e-01  3.5236128250960386e-01  3.1546263357795679e-01  3.1324665149630537e-01  3.1571544508286964e-01 
-8.2178606552765363e-02 -9.1946164770816977e-02 -9.9083871440196244e-02 -1.0023572195134221e-01 -1.0604736895619005e-01 -1.1149174978576409e-01 
-5.7413474045458358e-02 -6.1312581624688590e-02 -7.8855385787120508e-02 -6.5975596144190213e-02 -8.1512888144384898e-02 -9.4256897653019228e-02 
 1.9751903197851965e+00  1.8742695848300324e+00  2.0202407689084541e+00  1.7757392626340001e+00  1.9134012044903645e+00  2.0603723576047712e+00 
 1.5266695961292825e-01  6.1567406210350721e-02  8.8990260422122477e-02 -3.6234544262448272e-02 -1.2791720421100123e-02  1.5013309878370093e-02 
 7.9173134904418574e-02  1.6166362971531190e-01  1.2159491920153076e-01  2.4159888428974688e-01  2.0911361036090778e-01  1.7052550334902647e-01 
-9.0911996174202009e-02 -8.3186414533209282e-02 -9.4171397229269732e-02 -7.4806617437296108e-02 -8.8708006939401493e-02 -9.6632753041452871e-02 
 1.2879773301478894e+00  1.2552590957948304e+00  1.1695910819400206e+00  1.2270622689757829e+00  1.1455251832098770e+00  1.0475477728022617e+00 
 1.0348472304398002e+00  1.0206094486676254e+00  9.9986708044832373e-01  1.0062659200687565e+00  9.8774258256497283e-01  9.6537266284482615e-01 
 8.2819066191954352e-02  7.1181306793926993e-02  1.2006815077955980e-01  6.0852108396527216e-02  1.0683237591752857e-01  1.5820440958074450e-01 
-9.7461951396765112e-02 -9.8291136914951061e-02 -9.7047715179173100e-02 -9.7289526899700510e-02 -9.3976550480154269e-02 -9.1374410927421962e-02 
 2.5443821768079983e-02  2.5188409650802622e-02 -7.5002364716859234e-03  2.3538814378566780e-02 -5.9357116070069584e-03 -3.5162112816255288e-02 
 6.8576875748473476e-01  6.8892659539220835e-01  7.0461364942031290e-01  6.9543780654936671e-01  7.0735300945875879e-01  7.2068489548024162e-01 
 9.4134686822119196e-01  9.5323147021711230e-01  9.7312313849753296e-01  9.6537266284486423e-01  9.8774258256497394e-01  1.0062659200687245e+00 
 2.0926939067583095e+00  2.1424157793723371e+00  2.0799911675968978e+00  2.1997921121101034e+00  2.1144314553392074e+00  2.0335783301523467e+00 
 2.1059746451214618e+00  2.0301403236431508e+00  2.0274244482881150e+00  1.9476123141179398e+00  1.9566479442280547e+00  1.9661373000433600e+00 
-1.2629589532730115e-01 -1.2574773821097493e-01 -1.2832989468461756e-01 -1.2338403206012027e-01 -1.2772574079260618e-01 -1.2920431778568622e-01 
 6.8576875748473487e-01  7.0461364942029048e-01  7.0311960626696157e-01  7.2068489548026793e-01  7.1964756000440633e-01  7.2213757483301755e-01 
 3.9711599985458812e-01  4.3332462379774433e-01  3.9205812205375878e-01  4.7050606896210329e-01  4.3134341502440993e-01  3.9123610576405304e-01 
 1.5851772540306488e+00  1.5056430425478935e+00  1.5418588730920053e+00  1.4183815702096900e+00  1.4621078172453599e+00  1.5006196031320385e+00 
 2.3881759501171951e+00  2.3251837050778028e+00  2.3541525450051162e+00  2.2607644583173396e+00  2.3042184192111219e+00  2.3128318866917010e+00 
-1.0738947284262897e-01 -4.4106887710455650e-02 -1.2889445329025081e-02  1.2551737320523500e-02  4.6023603043016441e-02  8.5850008740528255e-02 
 8.1221567142412410e-01  7.3645343874284352e-01  7.4178151627880351e-01  6.6517170279681970e-01  6.6694349519704599e-01  6.6729434755566519e-01 
 1.8487208513704021e+00  1.9266013450144328e+00  1.8136741301447579e+00  2.0034858384429834e+00  1.8842253594666458e+00  1.7722320591320120e+00 
 6.7118294258285949e-01  5.9254214901340707e-01  6.0938764821212665e-01  5.1839417713178559e-01  5.3222023303639288e-01  5.4652394713936459e-01 
 2.0215717478275921e+00  2.0553121826835219e+00  2.0234982898807643e+00  2.1063580337378420e+00  2.0481606470047269e+00  1.9924776849786914e+00 
 1.0460414632627038e+00  1.1022569923850640e+00  1.0536253375315523e+00  1.1645129818384348e+00  1.1146217314273534e+00  1.0622961439687029e+00 
 1.3590453369119295e+00  1.3707088534256768e+00  1.2993550084032601e+00  1.3828068222793484e+00  1.3076180155640620e+00  1.2363433719611210e+00 
-7.9967013638704926e-02 -8.1909539007247137e-02 -9.2808738155177248e-02 -8.4489503123649806e-02 -9.4802030740128052e-02 -1.0261503804271792e-01 
 2.1493100642898875e+00  2.0348183544735807e+00  2.1191775307680967e+00  1.9344752368017772e+00  2.0114837235498357e+00  2.0882988101144280e+00 
 2.4794859105788252e+00  2.3847852894749546e+00  2.4052117542029010e+00  2.3040333555423569e+00  2.3155197949178934e+00  2.3080754380195527e+00 
 1.9100308932302581e+00  2.1444341535501614e+00  1.9106503043728409e+00  2.3850324442293109e+00  2.1363448054285130e+00  1.9126300608922688e+00 
 7.6151966953061467e-01  7.7775388066586526e-01  7.9779414714165564e-01  7.9677641226299345e-01  8.1718905947548737e-01  8.3581468133566761e-01 
 4.2987181785272763e-03  3.5381048224924494e-02  3.1053058083284891e-02  7.0343972992911563e-02  6.3052614950543387e-02  5.8536273795280085e-02 
 1.9466411423155150e+00  1.7203394876354867e+00  1.7608658148758733e+00  1.4535082216677930e+00  1.5238184267841257e+00  1.6044227083310825e+00 
-7.9967013638704468e-02 -8.6833334000773435e-02 -6.9575048090945529e-02 -9.2682954850023855e-02 -7.8547392299755700e-02 -5.8454420151555553e-02 
 2.7864394173724544e-01  2.5506246717718423e-01  2.3439823301855567e-01  2.3817971437320315e-01  2.1367559653111062e-01  1.9062311159087078e-01 
 7.1927229336612142e-01  5.9504923193268922e-01  6.3002377016340028e-01  4.6432936938483721e-01  5.0876335140797069e-01  5.4702122974576695e-01 
 3.4752961199120075e-01  3.3803997776470945e-01  3.8754592494298123e-01  3.3282617278314414e-01  3.7722540886289258e-01  4.2598272927231134e-01 
 9.4077823562968488e-01  9.9350892116048417e-01  8.4403455770511515e-01  1.0405660255266371e+00  9.0551777751723950e-01  7.5275822210880439e-01 
 2.5187056014802471e+00  2.4063458232860055e+00  2.4325620317577195e+00  2.3080754380196353e+00  2.3186776896900123e+00  2.3157007083647776e+00 
 1.6184159976837614e-01  1.7400734137555351e-01  2.0010623236925351e-01  1.9062311159088222e-01  2.1367559653111212e-01  2.3817971437319874e-01 
 3.8891413630249811e+00  3.9765045600404259e+00  4.0924907247802853e+00  4.0382141368357152e+00  4.1874815451762686e+00  4.3195422949511633e+00 
-7.8866063143041024e-02 -9.3582647718267978e-02 -8.4373606764769238e-02 -1.0536064303038908e-01 -9.7667335445307119e-02 -8.9679931931940349e-02 
 3.3216033948483057e+00  3.4970762647170526e+00  3.4357843662298690e+00  3.6975671613040069e+00  3.6214697715996076e+00  3.5364311346587947e+00 
 8.6445515984318566e-01  8.7840858919027065e-01  8.5344077342846369e-01  8.9429384370267673e-01  8.7044289424376975e-01  8.4446744917859995e-01 
 4.0149797036178436e-01  4.1061729128865110e-01  3.6792885568290756e-01  4.2598272927231851e-01  3.7722540886288952e-01  3.3282617278312315e-01 
 9.2984383441662732e-01  8.5556888469491055e-01  7.9560646201935181e-01  7.8823892069847490e-01  7.2622813751002713e-01  6.5438743574140512e-01 
 5.0769293397650550e-01  5.6335809295816330e-01  5.3269969085071167e-01  6.1880332332048460e-01  5.9122736254756036e-01  5.6189882057996521e-01 
-7.4180540235095502e-02 -6.2151295920978997e-02 -7.9718117351904219e-02 -4.9033879809098284e-02 -6.9301301990300310e-02 -8.5229311502837982e-02 
 2.9443029967975800e+00  2.8828772444495572e+00  2.8097978396577452e+00  2.8241485353339888e+00  2.7650993109585404e+00  2.6760280632584759e+00 
 1.9286664936069144e+00  1.9285483403990902e+00  1.9739382880236744e+00  1.9316036859686989e+00  1.9671516313077646e+00  2.0060292319890878e+00 
 7.6151966953061434e-01  7.9779414714162933e-01  7.8093918315701594e-01  8.3581468133569448e-01  8.1576467057590463e-01  7.9837465935315033e-01 
 4.4177827376860490e+00  4.3164117018733714e+00  4.5775579783118605e+00  4.2000352922320259e+00  4.4500679262327774e+00  4.7285913650787341e+00 
 1.8512980943758073e+00  1.8007660260864717e+00  1.7611543708883428e+00  1.7475009598940197e+00  1.7163388402769002e+00  1.6770908743613326e+00 
 1.5417321341740209e+00  1.4990213662461473e+00  1.5957782253531871e+00  1.4502547487919117e+00  1.5432094615360310e+00  1.6469117902457699e+00 
 2.8226955923394281e+00  2.7684784394401074e+00  2.9306038894150745e+00  2.7173300074267814e+00  2.8644780846109232e+00  3.0348507448755369e+00 
 6.7118294258286293e-01  6.8370547165771034e-01  7.5988603000395272e-01  6.9645614707315695e-01  7.7597605169288086e-01  8.4871100241799979e-01 
 1.1049589433402447e+00  1.1695994452087182e+00  1.1261245312556905e+00  1.2375841103900378e+00  1.1961519351765919e+00  1.1505772511788996e+00 
 1.9980365051103548e+00  1.9346284123295923e+00  1.9668112433516824e+00  1.8277392988725951e+00  1.8974371413836177e+00  1.9678368535780049e+00 
 2.3197269577428354e+00  2.1448208883618114e+00  2.2214734389208006e+00  1.9466411423156029e+00  2.0598053247190817e+00  2.1387748867393550e+00 
 2.0302588433584794e+00  2.0648712014469841e+00  2.1443444075004838e+00  2.0800605212151453e+00  2.1496772004982345e+00  2.2302216321338562e+00 
 1.7791252253276324e+00  1.8543001863250381e+00  1.9066660560764077e+00  1.9104460952633746e+00  1.9646664216908976e+00  2.0302588433584772e+00 
 1.6203943852429370e+00  1.1528053609819764e+00  1.4708422692457561e+00  5.9851147294378881e-01  9.8726441758824413e-01  1.3351430041031753e+00 
-1.6392235388911974e-02 -2.1990889751288805e-02 -4.8087047221486240e-02 -2.7671851925721455e-02 -5.0394521288453988e-02 -7.3504654623247553e-02 
 8.8772880203191684e-01  8.6784903553418380e-01  7.9132391317422612e-01  8.4871100241801589e-01  7.7597605169287587e-01  6.9645614707311820e-01 
 7.5985763943559237e-01  7.9921345486052753e-01  8.0313405606884503e-01  8.3629568982983093e-01  8.4150441442566426e-01  8.4887769725397944e-01 
 5.0167693202826247e-01  3.9767460403953286e-01  4.6207290248111438e-01  2.8470343646058149e-01  3.4934283774574759e-01  4.1915662774953694e-01 
 1.1835114674721796e+00  1.2728378958259261e+00  1.1650018636751152e+00  1.3563798720619480e+00  1.2510110320396717e+00  1.1481027883928276e+00 
 1.9839227471638683e+00  1.9780112134571863e+00  1.9133180218801202e+00  2.0075199633116978e+00  1.9419090695360779e+00  1.8404796973903497e+00 
 1.6325850891752542e+00  1.7360980430624675e+00  1.6544821000676935e+00  1.8487208513704549e+00  1.7612559444876097e+00  1.6753047486507338e+00 
 6.8547407761912749e-01  6.8597150764951831e-01  8.1173559717345167e-01  6.8727629330805773e-01  8.0265109721388195e-01  9.2315008250078423e-01 
-5.1562441724319986e-02 -6.9435953436239192e-02 -4.5964712569034186e-02 -8.4610766534273685e-02 -6.4446963506627208e-02 -3.9279321894315711e-02 
 3.3069082562449653e-01  3.7304252082094869e-01  3.4366441831000827e-01  4.1733316384800712e-01  3.8520742680593628e-01  3.5539695937508359e-01 
-5.0655786739565549e-02 -4.0442230390144461e-02 -9.2055163504157919e-02 -3.1767342805250495e-02 -7.7804454488969124e-02 -1.2513029634496586e-01 
 9.1292587398850855e-01  9.0294190940802588e-01  8.8999853973914633e-01  8.9429384370267917e-01  8.7840858919029874e-01  8.6445515984318588e-01 
 1.8403738441755046e+00  1.9488521252844133e+00  1.7341787982992023e+00  2.0412561085682746e+00  1.8448768512729343e+00  1.6579581385718221e+00 
 4.7536118751645658e-02  6.7592967854018221e-02  1.1796417345641136e-01  8.5850008740541370e-02  1.3332364200225158e-01  1.8895104890965617e-01 
 1.0338598107778196e+00  1.0933311059474546e+00  9.7366298898521986e-01  1.1481027883928472e+00  1.0340734117209343e+00  9.1681022685968638e-01 
 2.0373436775869222e-01  1.7480362597531096e-01  1.5619727538071726e-01  1.5005520100250705e-01  1.2999211993702833e-01  1.1028075024127665e-01 
 2.5944646750533726e+00  2.6693853372248180e+00  2.5534997422228951e+00  2.7554675445370771e+00  2.6246405518181120e+00  2.4923500657622228e+00 
 2.0616884846989247e+00  2.1017022044930807e+00  2.0648074148022371e+00  2.1294764613969162e+00  2.0858151621463525e+00  2.0524996415838763e+00 
-1.1510178765361728e-01 -1.0924086109266208e-01 -1.1023582058501902e-01 -1.0000313388487095e-01 -1.0327327464084685e-01 -1.0460991848104427e-01 
 9.6136887260997161e-01  9.6061385290611345e-01  9.7560147229363248e-01  9.6047924476123125e-01  9.7490928006424782e-01  9.8693713167729236e-01 
-8.3351099196894748e-02 -7.4823208803589419e-02 -8.8724657896982417e-02 -6.5562913450915472e-02 -8.2127125643413137e-02 -9.3090546306858077e-02 
 6.7503229890733230e-01  6.1895344923965545e-01  6.4516430193652974e-01  5.6189882057999063e-01  5.9122736254756225e-01  6.1880332332046784e-01 
-1.2629589532730107e-01 -1.2832989468461353e-01 -1.2690697045429644e-01 -1.2920431778569022e-01 -1.2794904536334603e-01 -1.2422074994078254e-01 
-6.7285265254494311e-02 -6.3894590225770126e-02 -2.6847965886021230e-02 -6.1279892339045225e-02 -2.8171105698651180e-02  1.1353416865415670e-02 
 3.0150932470217673e+00  2.9170089000006980e+00  2.8756935896851257e+00  2.8296894893026123e+00  2.7961795792787618e+00  2.7418773575445976e+00 
 2.0616884846989247e+00  2.0648074148021718e+00  2.0251110120875557e+00  2.0524996415839429e+00  2.0337333625547891e+00  1.9954206391732894e+00 
 1.9544035217425806e+00  2.1285072189541463e+00  2.0329095209740502e+00  2.2991471152015235e+00  2.2199488348726222e+00  2.1238746528272201e+00 
-8.7033732320525470e-02 -5.0419390621673284e-02 -7.9536700353971576e-02 -1.1997593652628110e-02 -4.6006589871295592e-02 -7.3217857843534837e-02 
 1.9168286233841099e+00  2.0654315938540670e+00  1.9729492305984162e+00  2.2336567198035415e+00  2.1260035410997742e+00  2.0238213511813234e+00 
-2.5752544675388823e-02 -2.0295695144729687e-03  4.6014283786680585e-02  2.6290646422310372e-02  7.4975908149134296e-02  1.1586029231401632e-01 
-1.2654772737179437e-01 -1.2316169567836621e-01 -1.2191728020599395e-01 -1.1790100251851132e-01 -1.1624458693915218e-01 -1.1199715455273405e-01 
 1.0157225163574539e+00  9.3455253683044759e-01  9.2589360767467266e-01  8.4803827393962850e-01  8.4389428366742625e-01  8.3920439114840872e-01 
-7.3217857843534198e-02 -4.6006589871294072e-02 -4.4405307926813214e-02 -1.1997593652623267e-02 -1.3926667125025832e-02 -1.6392235388911436e-02 
 1.0157225163574557e+00  9.2589360767464812e-01  9.9512732234872803e-01  8.3920439114845125e-01  9.1027245801036316e-01  9.7578267895802151e-01 
 2.9666988742506892e+00  3.0160865048312657e+00  3.1067298092758517e+00  3.0548242849588738e+00  3.1674749604699293e+00  3.2664937123324194e+00 
-9.9707157040675259e-02 -9.8174243191686827e-02 -9.6903910015936109e-02 -9.7461951396767943e-02 -9.7047715179173086e-02 -9.1374410927421962e-02 
 2.3881759501171977e+00  2.3541525450050469e+00  2.4540599385655963e+00  2.3128318866918050e+00  2.4096233777109730e+00  2.5241639852356168e+00 
 1.2595599136495923e+00  1.2819477801621415e+00  1.3045132033305393e+00  1.3072455087793655e+00  1.3301581840617507e+00  1.3447927794192083e+00 
 2.5187056014802476e+00  2.5052070187799007e+00  2.4063458232860753e+00  2.4794859105788984e+00  2.4052117542029001e+00  2.3080754380195527e+00 
 7.7619687150112571e-01  8.5884512453509188e-01  7.1137088354462696e-01  9.2984383441663732e-01  7.9560646201934870e-01  6.5438743574140512e-01 
 3.5364311346587964e+00  3.7271627003399730e+00  3.6272537554396900e+00  3.9444040528493014e+00  3.8290303627032718e+00  3.7048070425889525e+00 
-1.4837828412214049e-01 -9.9413293470158107e-02 -1.3639738240465860e-01 -5.0655786739572967e-02 -9.2055163504158738e-02 -1.2513029634496586e-01 
 8.4887769725398055e-01  8.4150441442563895e-01  9.0206828960862551e-01  8.3629568982984093e-01  8.9231994113578383e-01  9.5274458882260049e-01 
 1.3271177202380493e+00  1.4255429213177295e+00  1.4113939860643292e+00  1.5250248610044894e+00  1.5078028429646877e+00  1.4920495313632811e+00 
 3.5251052379661059e+00  3.3510689064221109e+00  3.3012562908891576e+00  3.1799089412831316e+00  3.1553510352757672e+00  3.1093372630344684e+00 