<VTKFile type="UnstructuredGrid" version="1.0" byte_order="LittleEndian" header_type="UInt64">
<UnstructuredGrid>
<Piece NumberOfPoints="7326" NumberOfCells="4884">
<PointData>
<DataArray type="Float64" Name="σx" NumberOfComponents="1" format="ascii">
 1.0245339440589616e+00  9.9251530866953619e-01  9.8766808947210638e-01  9.5675793123703545e-01  9.5485766851337728e-01  9.5436008061518363e-01 
-1.0531415501145627e-01 -1.0037914248945841e-01 -1.0124634965208576e-01 -9.1007049663043960e-02 -9.4902496804330314e-02 -9.7289526899697429e-02 
-1.0831613913480997e-01 -1.1248824780917981e-01 -1.1107259529197298e-01 -1.1665065514829234e-01 -1.1508423193727775e-01 -1.1051984613877153e-01 
 3.1794614697731710e-01  3.7748526768612423e-01  3.6367165239704058e-01  4.3704046741578423e-01  4.2561742592975510e-01  4.1389408148141399e-01 
 7.8030361206236709e-01  8.2713927991097458e-01  8.5357545401327095e-01  8.6962128936623195e-01  8.9840633013001170e-01  9.2886918789800665e-01 
 3.5113948157608483e+00  3.6550360885171793e+00  3.7266954851096235e+00  3.8001467203872918e+00  3.8888338034225765e+00  3.9648155920250310e+00 
 7.2361029057955506e-01  7.0383777858858110e-01  7.5488899646999685e-01  6.8698490793718958e-01  7.3608690530320309e-01  7.8422524449925413e-01 
 8.4128380702203898e-01  9.0632080005559035e-01  9.0753508461659049e-01  9.6876680153498351e-01  9.7246469156282123e-01  9.7742894138540171e-01 
 1.5730372450197316e-01  1.6082420491376168e-01  1.3297247129654793e-01  1.6999473878054089e-01  1.3808905642252189e-01  1.0889738943592274e-01 
 1.4438560533564653e+00  1.4291438718068143e+00  1.5664601106969063e+00  1.4182173423394171e+00  1.5445083651275091e+00  1.6676405215674359e+00 
 5.0062924590985514e-01  5.6398094741562477e-01  5.8515674913656623e-01  6.3069503385770465e-01  6.4746939116698521e-01  6.6102295734535954e-01 
 1.8789191025124576e+00  1.8385267084384200e+00  1.7872681185807413e+00  1.8035333973854204e+00  1.7535795490899484e+00  1.6891884509348873e+00 
-7.9027845688657963e-02 -7.0714037331660831e-02 -5.9190578090941248e-02 -6.0837197615732606e-02 -4.9380934019889654e-02 -3.5778718662776939e-02 
 1.9633836107369504e+00  2.0204733221776134e+00  2.0301277421687614e+00  2.0572098264638425e+00  2.0816688347117189e+00  2.1046496309376033e+00 
 1.0957895386536463e+00  1.1625980949609804e+00  1.1884750975532552e+00  1.2215216678082792e+00  1.2501075428004489e+00  1.2804928148886223e+00 
 5.1205548567551629e-01  5.7166091591580859e-01  5.5837765521869309e-01  6.3073604792840965e-01  6.2049099007954700e-01  6.1088160664992208e-01 
 7.1636513434002946e-01  6.5655970800403030e-01  6.6139302152365964e-01  5.9537128821198326e-01  6.0279170941630134e-01  6.1088160664992208e-01 
 5.3056148944418158e-01  5.6909393681313525e-01  5.4412825360070249e-01  6.0891622372958731e-01  5.8641169961421313e-01  5.6267741323024445e-01 
 1.1498926595840366e+00  1.0312395549799505e+00  1.1450412728972470e+00  9.1485151986252167e-01  1.0356974055136008e+00  1.1412256328289319e+00 
 1.4245389219729423e+00  1.0401181488140545e+00  1.0797500465840013e+00  5.9851509718115659e-01  6.2601884999039870e-01  7.1262252445246344e-01 
 8.3146768998447973e-01  8.5680365059576413e-01  8.1972062198406692e-01  8.8616884721264666e-01  8.4903611390444322e-01  8.0905578645685194e-01 
 2.1547909979310069e+00  2.0929798773729544e+00  2.0703014207018051e+00  2.0401446300601105e+00  2.0151213385123996e+00  1.9767013224206433e+00 
 3.8527944757908245e-01  4.4285607792000392e-01  4.1030064734078220e-01  5.0136278443026394e-01  4.6523453299254297e-01  4.3506541488278161e-01 
 1.3634478912052397e+00  1.0507138027775456e+00  1.0033750854966821e+00  7.1262414716313072e-01  6.2601859161979256e-01  5.9851147294370299e-01 
 4.6001444130473168e-01  4.9428597512295719e-01  4.9428534209641944e-01  5.2799978891859578e-01  5.2622871618505873e-01  5.2971935313171092e-01 
 2.5322489346479755e+00  2.5238789635411814e+00  2.6370753377604323e+00  2.4866195217373388e+00  2.6154965164124673e+00  2.7533106180256346e+00 
 5.0769293397650395e-01  5.3269969085069346e-01  4.7135054563718665e-01  5.6189882057997409e-01  4.9574721394987126e-01  4.3367061935640078e-01 
 1.6579581385718141e+00  1.5248812573255239e+00  1.3863520228854072e+00  1.4671462288260109e+00  1.2546776242137254e+00  1.0504355061225088e+00 
 9.6876680153494998e-01  1.0316286622956341e+00  1.0357597814642427e+00  1.0916066427950923e+00  1.0980595047083741e+00  1.1056811745451871e+00 
-4.1895837544222859e-02 -3.4809503935497893e-02 -1.4545487402944897e-02 -2.7671851925713063e-02 -4.7331180752081588e-03  1.7344382457607357e-02 
 1.7264100507390561e+00  1.6456076595543092e+00  1.7662455321251351e+00  1.5687412213769378e+00  1.6919992089758391e+00  1.7972040217521785e+00 
 1.3644071977097540e+00  1.2497283089751352e+00  1.3573499207163429e+00  1.1357654677356230e+00  1.2517636970561732e+00  1.3508481619058275e+00 
 5.2799978891857735e-01  5.6294851467378693e-01  5.5973672439224809e-01  5.9695988447379367e-01  5.9253221058028338e-01  5.9266216290039542e-01 
 1.4205309207357519e+00  1.4084025534270517e+00  1.3162847914360720e+00  1.3967354089779656e+00  1.3099500487207980e+00  1.2117438555630042e+00 
 1.6883979527203645e+00  1.5316713463473977e+00  1.3988924405544025e+00  1.4365910290432422e+00  1.2268051670106861e+00  1.0263814369590134e+00 
 1.2258634761312830e+00  1.2056509878733486e+00  1.1789655189889217e+00  1.1834753771494066e+00  1.1639828394843608e+00  1.1385952884678792e+00 
 9.9064432509682787e-01  9.9016097377562839e-01  9.9745525335294338e-01  9.8988682806220452e-01  9.9737458763303533e-01  9.9999998973072868e-01 
 4.8111257236106175e-01  5.0637745838940074e-01  5.2135378810916444e-01  5.3056148944420323e-01  5.4412825360070305e-01  5.6267741323024445e-01 
 1.6044227083310814e+00  1.3478220172273323e+00  1.4922316847558610e+00  1.0263815064778672e+00  1.2268054040860856e+00  1.4365919568384040e+00 
 8.0663683883834558e-01  8.7069759664416191e-01  8.9030330197405327e-01  9.3011239761885633e-01  9.5195500120499732e-01  9.7578267895802151e-01 
 1.4064139836274947e+00  1.2710023612450854e+00  1.3934961345203210e+00  1.1332999982457959e+00  1.2685972869190223e+00  1.3831202236039271e+00 
 2.0633147315934388e+00  2.1905862608965054e+00  2.0547818161168507e+00  2.3401964156888759e+00  2.1811820028231468e+00  2.0400608256996153e+00 
 2.0238213511813270e+00  2.1260035410997085e+00  2.1720707508139925e+00  2.2336567198035682e+00  2.2937808615479693e+00  2.3401962838634307e+00 
 2.3457871017648237e+00  2.2577944191507218e+00  2.1278429940744239e+00  2.1783509213936574e+00  2.0539918850332008e+00  1.9126300608922688e+00 
 3.1541361818025054e-01  3.3909465234346592e-01  3.7539103818693398e-01  3.6726705021150546e-01  4.0288575965706380e-01  4.3700616450019814e-01 
 2.8296894893025200e+00  2.9446018277453598e+00  2.7913412017508623e+00  3.0358897789200769e+00  2.8803504317368231e+00  2.7448864116535359e+00 
 4.2598272927231240e-01  4.5408163597224471e-01  4.7161985863528866e-01  4.8111257236108168e-01  4.9708752142846663e-01  5.1838113834102717e-01 
 7.8422524449925435e-01  8.3097866607005033e-01  7.8886089871153564e-01  8.8146369931158397e-01  8.4088990933723995e-01  7.9715876509243111e-01 
 1.3292940262819367e-01  1.8968880952056796e-01  1.7291591792512917e-01  2.4578378068713694e-01  2.3295420264109942e-01  2.1735523423796274e-01 
 2.7864394173724610e-01  3.0555916696553148e-01  2.5506246717719155e-01  3.3193658942096582e-01  2.8333441785630459e-01  2.3817971437319874e-01 
 4.8711782634738776e-01  4.2121363875536327e-01  5.0163353543724831e-01  3.6013131554358363e-01  4.3834963556669843e-01  5.1299343918493479e-01 
 2.0603723576047739e+00  2.2087448235940892e+00  2.1657443315616045e+00  2.3750173642059598e+00  2.3318830340227228e+00  2.2761348446321188e+00 
 3.9648155920250270e+00  4.0698265668927309e+00  3.7706693124677515e+00  4.1646569798758231e+00  3.8574820958503135e+00  3.5877402427427794e+00 
 9.4134686822119140e-01  9.2105579421247308e-01  9.5323147021714250e-01  8.9902358393318504e-01  9.3079570118099475e-01  9.6537266284482615e-01 
-1.1943702574717824e-01 -1.1552923149597662e-01 -1.0951915571049885e-01 -1.0865987591010122e-01 -1.0409269737273297e-01 -9.6650209095686182e-02 
 9.7946436580993046e-01  9.7525786993841879e-01  9.8644536760914658e-01  9.7152263532228889e-01  9.8401142349544923e-01  9.9293483073867694e-01 
-9.4256897653019325e-02 -1.0113419372560181e-01 -1.0609390644357505e-01 -1.0417464808125394e-01 -1.0810185308902764e-01 -1.1227365767854443e-01 
-1.0037854674077634e-01 -1.0402376724996554e-01 -1.0331841991748424e-01 -1.0831613913481333e-01 -1.0719413530558192e-01 -1.0328838018234676e-01 
-9.4324457965395042e-02 -9.0433280108211514e-02 -9.5821835208324380e-02 -8.5130457012803806e-02 -9.3543785437539245e-02 -9.8392117454529582e-02 
 1.3491195453352059e-01  1.7625005724863882e-01  1.2054431903133227e-01  2.1474511385736489e-01  1.5870387868042105e-01  1.0678452128338321e-01 
 3.3267989870905679e-01  3.5752416666510212e-01  3.8427384444372992e-01  3.8527944757910026e-01  4.1030064734078314e-01  4.3506541488278161e-01 
 1.0803289758904584e+00  1.1559455229496864e+00  1.1712320541352206e+00  1.2241205389705383e+00  1.2430286501284000e+00  1.2628619749837722e+00 
 4.4044088662216510e+00  4.3811301772049953e+00  4.5954177469888888e+00  4.3441770786409872e+00  4.5654643117455231e+00  4.8000568268436608e+00 
 5.6382473949707035e-01  5.5919807626113616e-01  5.9528843953545307e-01  5.5906549363883606e-01  5.9492301780426082e-01  6.2918465219045672e-01 
-2.5752544675389729e-02 -6.7679490401827108e-02 -2.0295695144725828e-03 -1.1524400769096341e-01 -4.5281398906390317e-02  2.6290646422301545e-02 
 2.0175243254514932e-01  2.2646080494148868e-01  2.3885783557504689e-01  2.5143286124173958e-01  2.6205277984212344e-01  2.7756815360300663e-01 
 5.4460985935431980e-03 -1.0904137293736437e-02  1.5033883409867173e-02 -2.3919561740342606e-02  1.7056480855497942e-03  2.8367325576079214e-02 
 8.7220041051615838e-01  8.4907107143520122e-01  8.7221474523520170e-01  8.2523680454048565e-01  8.5081749580896449e-01  8.7511111304926992e-01 
-9.4256897653019381e-02 -1.0609390644357125e-01 -1.0158227142351750e-01 -1.1227365767854780e-01 -1.1159600341447820e-01 -1.0857722671022169e-01 
 2.1273525786472784e-02  5.2138996030874248e-02  9.6118051095282361e-02  7.9173134904429079e-02  1.2159491920153188e-01  1.7052550334902647e-01 
 4.4177827376860428e+00  4.1977380840529399e+00  4.3164117018734967e+00  3.9959905883485156e+00  4.1026044228042107e+00  4.2000352922318251e+00 
 2.1957748438512557e+00  2.1468539891545642e+00  2.2344251949819283e+00  2.1046496309376952e+00  2.1795582771484501e+00  2.2607644583172548e+00 
 2.0587614653176010e+00  2.1648173623694973e+00  2.2079105725334931e+00  2.2761349123380143e+00  2.3318830230056249e+00  2.3750174628926679e+00 
 2.0937833812527443e-01  2.6307662578596386e-01  2.4417574778991208e-01  3.1794614697732398e-01  3.0075821441330752e-01  2.8292493102520422e-01 
 6.8953176895939827e-01  7.0148323168258930e-01  7.8077570652753359e-01  7.1200787172839020e-01  7.8919636411581073e-01  8.6962128936619532e-01 
 2.0216388763631890e-01  2.2667539134165918e-01  2.5144255960340778e-01  2.5120015311408483e-01  2.7399261013182252e-01  3.0248712398313243e-01 
 9.1569171508156399e-01  9.2602288273295419e-01  9.4196450384626562e-01  9.4067831219507081e-01  9.5485368754428401e-01  9.6698902956424915e-01 
 3.3033917067686311e+00  3.2876229224909816e+00  3.1669826121208460e+00  3.2587520501325011e+00  3.1439728730354712e+00  3.0406427816653605e+00 
 2.5443821768081947e-02  3.7727909621069547e-02  7.6875555990933264e-02  5.1184075557017088e-02  9.4525696227697020e-02  1.3491195453352092e-01 
 9.7946436580993024e-01  9.8789905501362130e-01  9.7894528636926759e-01  9.9390834132601247e-01  9.8802419009331710e-01  9.8055092888271156e-01 
-8.9405884964258664e-02 -7.9255682623150567e-02 -9.1464764474386562e-02 -6.7096189997007935e-02 -8.2421772917879374e-02 -9.3159302508994860e-02 
 1.1056811745451884e+00  1.0980595047083408e+00  1.1725238286777202e+00  1.0916066427951048e+00  1.1624721723755307e+00  1.2363433719611210e+00 
-1.0390613786730714e-01 -1.0536747144020406e-01 -9.2488164229291875e-02 -1.0473274224028245e-01 -9.3244101690521955e-02 -7.8704244647164232e-02 
 2.9001087411628350e+00  2.7402903420002844e+00  2.9148647727011241e+00  2.6021895069554595e+00  2.7489800192283984e+00  2.9058960696063081e+00 
 8.2876989503904042e-01  8.8077117590658538e-01  8.9237796910020717e-01  9.3785211926426126e-01  9.4617599627773219e-01  9.5456163203784838e-01 
 1.1845623959872940e+00  1.2229893602419657e+00  1.2023120952117436e+00  1.2566658081856679e+00  1.2387632912441371e+00  1.2181868989939943e+00 
 3.7048070425889481e+00  3.7141658232769355e+00  3.4912474388844048e+00  3.6986901067142428e+00  3.4864526202537434e+00  3.2962629618463382e+00 
 2.0400608256996176e+00  2.1811820028230766e+00  2.1349928695189204e+00  2.3401964156888915e+00  2.2937808657950334e+00  2.2336566423340911e+00 
 9.5690215915637022e-01  9.3617881117954971e-01  9.2693598965094071e-01  9.1447454961635255e-01  9.0753276927034021e-01  9.0142036495954492e-01 
 6.5463045713054946e-01  7.2089592372550337e-01  7.2886616578181607e-01  7.8371161242120846e-01  7.9453856913612941e-01  8.0663683883834369e-01 
 8.6962128936619776e-01  9.5746654085377059e-01  9.7391207725857276e-01  1.0376441521942696e+00  1.0584919410217428e+00  1.0803289758904562e+00 
 8.0204503109498404e-01  8.7112058319791452e-01  8.1539100671830333e-01  9.3785211926424961e-01  8.8077117590661258e-01  8.2876989503903908e-01 
-5.6578617927664290e-02 -7.1980428482942990e-02 -5.2328345518215497e-02 -8.5229311502837315e-02 -6.9301301990299130e-02 -4.9033879809093510e-02 
 6.0891622372957110e-01  6.2922358167230130e-01  6.5108488563075051e-01  6.4833955615490624e-01  6.6864088581617676e-01  6.9399314595866857e-01 
-9.7361501406892106e-02 -9.8430472873801050e-02 -9.6683603350498998e-02 -1.0037854674077902e-01 -9.9558039668308035e-02 -9.3159302508994860e-02 
-1.0865987591009817e-01 -9.5946016527076849e-02 -9.4012897016267874e-02 -7.9391065007203054e-02 -7.9153687470602530e-02 -7.6329147190791827e-02 
 5.9079803340563779e-02  1.0038323952809147e-01  8.3878135289634614e-02  1.4507694424101772e-01  1.2569324449041303e-01  1.0837056970268179e-01 
 1.2415760649333776e+00  1.2690137771490644e+00  1.3050577740843627e+00  1.2927401791665276e+00  1.3309101864389714e+00  1.3719794221006627e+00 
-7.1432407608548035e-02 -5.0044001086816031e-02 -5.6266625106900656e-02 -2.5074301252364626e-02 -3.3519867092185060e-02 -3.9579240503254488e-02 
 2.8160718023646543e+00  2.7794867428031478e+00  2.9665955179059624e+00  2.7246149333894660e+00  2.9211317778438932e+00  3.1359010198832196e+00 
 1.1127434538743977e+00  1.1922008234621007e+00  1.2074710848239110e+00  1.2628619749838215e+00  1.2825522336820860e+00  1.3031988767509033e+00 
 1.6557600220201372e+00  1.7652541480248674e+00  1.7626959273140856e+00  1.8571971866111698e+00  1.8651643919085488e+00  1.8743882538309495e+00 
-5.1274050510402312e-02 -5.0132197214952212e-02 -7.2184261429615176e-02 -5.0131687696214317e-02 -7.2319860431845351e-02 -8.9679931931940349e-02 
 8.3146768998448051e-01  8.6589426938156833e-01  8.5680365059579200e-01  8.9754424995980842e-01  8.9121054485163631e-01  8.8616884721262223e-01 
-8.8733778693412813e-03  2.4496173255068133e-02  8.7013419176353839e-03  6.1827174662880638e-02  4.3115621440409133e-02  2.6204954531144391e-02 
 3.3216033948483004e+00  3.2381231687955339e+00  3.1730002321047603e+00  3.1525839032376477e+00  3.1069850874371783e+00  3.0358897789199935e+00 
-1.0417464808124932e-01 -1.0303310371128795e-01 -1.0659254683305919e-01 -9.9010945377527360e-02 -1.0215011138135074e-01 -1.0561794707212828e-01 
 1.0739019658343751e+00  1.1598554456219603e+00  1.1473585737613072e+00  1.2467168906113100e+00  1.2289699113229331e+00  1.2117438555630042e+00 
 1.0626892282991837e-01  1.2973381602097658e-01  1.5504260137706058e-01  1.5565336425699192e-01  1.8180094036347322e-01  2.0667410276319190e-01 
 5.1051271351960459e-01  5.3077135988833712e-01  5.5246447889458927e-01  5.5160601177971702e-01  5.7028148619971286e-01  5.9430716729403754e-01 
 9.1569171508156377e-01  8.9701663923866803e-01  9.2602288273298317e-01  8.7633288180684943e-01  9.0899444155113229e-01  9.4067831219503451e-01 
 6.4312177421378935e-01  6.6784408074242974e-01  6.6485311962375437e-01  6.9581214251830814e-01  6.8888896331130822e-01  6.8477859956607112e-01 
 2.0830422468166985e+00  2.1959840354888076e+00  2.1263668365756931e+00  2.3080754380196224e+00  2.2242204444649110e+00  2.1547909979310087e+00 
 9.5093963465852493e-01  9.5120458343313186e-01  9.3439940690269796e-01  9.5336006345966051e-01  9.3663926368368955e-01  9.1720084711415806e-01 
-1.0778931401575893e-01 -1.1214039499880996e-01 -1.0488172768840909e-01 -1.1325404177900047e-01 -1.0904862251165753e-01 -1.0237344938470157e-01 
 2.0411933617716489e+00  2.1517562725814479e+00  2.1219449980712271e+00  2.2455932964344507e+00  2.2381182222788412e+00  2.2168438167106213e+00 
-4.0130042648714705e-02 -5.3534659931790254e-02 -2.4393040862443351e-02 -6.5104254242308285e-02 -3.8674723717537572e-02 -7.6663854716334245e-03 
 8.5774206503901229e-01  8.4348293873945324e-01  9.0381773106343843e-01  8.2876989503908061e-01  8.9237796910020883e-01  9.5456163203784838e-01 
-8.0023761509067246e-02 -7.7143582223395429e-02 -6.3378682602604014e-02 -7.4612545362392813e-02 -5.8357019089387716e-02 -4.1895837544223623e-02 
 8.5774206503901096e-01  8.0117267886136634e-01  8.4348293873947811e-01  7.4357542702079316e-01  7.8382623558326359e-01  8.2876989503903908e-01 
 5.3699917073156844e-01  4.6254784295099904e-01  5.6639689681879779e-01  3.9380860765461095e-01  4.9561273772396014e-01  5.9165529977842324e-01 
 2.3881759501171946e+00  2.4285499036448175e+00  2.3251837050778734e+00  2.4668184867936427e+00  2.3534415547616896e+00  2.2607644583172548e+00 
-1.5716383131144575e-02 -2.8526159513910646e-02  1.9780437380019526e-03 -4.0130042648710680e-02 -1.2039742701320208e-02  2.0005673066022290e-02 
 8.5850008740529060e-02  4.6023603043016434e-02  1.2928236761579912e-01  1.2551737320531173e-02  8.9710166803475974e-02  1.6690294937711547e-01 
 2.7964266050283798e-01  2.6252062376903679e-01  3.5976893025927459e-01  2.4522319217303232e-01  3.4861744865443445e-01  4.4263871237647356e-01 
-8.4745491555760000e-02 -9.3314995466906095e-02 -1.0145638769665155e-01 -1.0090381789917793e-01 -1.0768960132433879e-01 -1.1370045084628190e-01 
 6.5428845962371107e-01  6.7471427013614615e-01  7.0691016403794271e-01  6.9399314595869988e-01  7.2443783123011596e-01  7.5993312778027466e-01 
 7.1113852499283037e-01  7.3630833776867721e-01  7.7334461930886012e-01  7.5993312778030930e-01  7.9539405327375812e-01  8.3629568982979952e-01 
 1.3175763480014288e-01  1.0678033389930551e-01  8.1707618807652427e-02  7.9173134904416423e-02  5.5359839463186435e-02  3.5711390885509335e-02 
 4.7452525206195900e-01  4.4733933005568882e-01  4.9671446565893140e-01  4.2598272927233555e-01  4.7161985863529010e-01  5.1838113834102717e-01 
 4.6342480776138201e-01  4.9671867942367598e-01  5.0752119966152232e-01  5.2971935313173246e-01  5.3799517107153549e-01  5.5160601177969282e-01 
 7.5946794385973448e-01  7.7497579997647703e-01  7.9658665557994346e-01  7.9144561073012121e-01  8.0949327591574582e-01  8.3146768998447984e-01 
 2.5775102962278744e+00  2.6544556521620231e+00  2.7077856917053094e+00  2.7418773575447033e+00  2.7961795792787645e+00  2.8296894893025208e+00 
 1.9678368535780080e+00  1.9136091958894768e+00  2.0214299205297634e+00  1.8323922893267159e+00  1.9989669573952529e+00  2.1366374739720322e+00 
 1.6570830083269521e+00  1.5585141156012625e+00  1.5794547489954684e+00  1.4586292710341586e+00  1.4724338898116611e+00  1.4875789915450970e+00 
 9.7578267895802362e-01  1.0367494516467628e+00  1.0644514536442904e+00  1.0925804009208315e+00  1.1217922774814877e+00  1.1532922027752150e+00 
 1.9842356894708024e+00  1.7439268427095740e+00  1.9717352152848944e+00  1.5026313095507082e+00  1.7532839898836217e+00  1.9630598178593299e+00 
 1.7972040217521801e+00  1.8883498630905797e+00  1.8533064064542559e+00  1.9633836107370142e+00  1.9468072085833648e+00  1.9173292193592677e+00 
-1.0857722671022174e-01 -1.1159600341447500e-01 -1.1687328566362749e-01 -1.1227365767854929e-01 -1.1672386932707135e-01 -1.2072812519475677e-01 
 1.8971669609194824e-01  2.0071351535819468e-01  2.2425031511761986e-01  2.1787610918980782e-01  2.3644227099419254e-01  2.5864194718837724e-01 
 3.0611544053349036e+00  2.9472674009242974e+00  3.2143761400656348e+00  2.8218211745303710e+00  3.0797706859776683e+00  3.3741361445167755e+00 
 2.1618603646378109e+00  2.0979441487841286e+00  2.2477325855915176e+00  2.0238213511814269e+00  2.1720707508139983e+00  2.3401962838634307e+00 
 1.4507694424101522e-01  1.7742977424942735e-01  1.2569324449041325e-01  2.0886422958977610e-01  1.5688197249209598e-01  1.0837056970268179e-01 
-9.9268280641229154e-02 -9.7423876934959477e-02 -9.5729840258813453e-02 -9.7361501406894937e-02 -9.5739407797550760e-02 -9.0674708671795404e-02 
-1.0253523799095120e-01 -1.0237051506129799e-01 -1.0618195126619530e-01 -9.9411354005410679e-02 -1.0633710315890919e-01 -1.1015649873972999e-01 
 5.9165529977842357e-01  5.1817450132852549e-01  6.1053619498126321e-01  4.4975352539918478e-01  5.4056526402164562e-01  6.2605816234962608e-01 
 9.8988682806216810e-01  9.8832715013428429e-01  9.9731288987504885e-01  9.8693713167732877e-01  9.9651594466613092e-01  9.9999999642548831e-01 
-9.9085703384358612e-02 -8.7111429477402330e-02 -8.3973917619199076e-02 -7.2361251874690571e-02 -6.9512675807129901e-02 -6.5104254242311560e-02 
 4.2371131090800596e+00  4.0048601866462530e+00  4.2073846050105690e+00  3.7960693375247492e+00  3.9786810446764185e+00  4.1646569798757245e+00 
-7.4570267396649736e-02 -5.8648107505697801e-02 -7.0857668537488136e-02 -4.0130042648718868e-02 -5.4296076796967734e-02 -6.7096189997003480e-02 
 1.6690294937711669e-01  2.4764432738828956e-01  2.1383063375905151e-01  3.2613130089416520e-01  2.9904235513025901e-01  2.6690872458073661e-01 
 1.6000180408452450e-01  2.0723171482127054e-01  1.4718642803441367e-01  2.5062435123009535e-01  1.9084957961055074e-01  1.3491195453352092e-01 
 2.8218211745302200e+00  2.7123887859956657e+00  2.9726246741839808e+00  2.5975026168348276e+00  2.8464587176140586e+00  3.1280336099421078e+00 
 8.1605440586731050e-03  1.5902232614929682e-02  4.3745260120396617e-02  2.3538814378577744e-02  5.3868886668205801e-02  8.3525314212043067e-02 
 8.2022803793916604e-02  1.5740596255769382e-01  8.3521047651918118e-02  2.3045862333970471e-01  1.5465534132492209e-01  8.5750510189531684e-02 
 3.0348507448755391e+00  2.9783718380970825e+00  3.1620770198318047e+00  2.9156531191996780e+00  3.0801077759203133e+00  3.2720234517766413e+00 
 1.0613854158081375e+00  1.0989209493663759e+00  9.9853991946776766e-01  1.1304069202277105e+00  1.0378342845597810e+00  9.3905574110148604e-01 
-8.2178606552765307e-02 -9.9083871440192484e-02 -9.1856437927660628e-02 -1.1149174978576694e-01 -1.0636948622644335e-01 -1.0051222731989723e-01 
-1.0889217473796030e-01 -1.1531071126284483e-01 -1.1395110017000103e-01 -1.1811721292511092e-01 -1.1948915267728331e-01 -1.1869878949348851e-01 
 4.0115154224989730e-01  4.3046144941217390e-01  3.9905846442142645e-01  4.6185599571162572e-01  4.3240423842818004e-01  4.0149797036178514e-01 
 3.0925933048429814e+00  3.0692035391602577e+00  2.9553375054929347e+00  3.0358897789200805e+00  2.9446018277454522e+00  2.8296894893025208e+00 
-1.0898655608818028e-01 -1.0635691623692191e-01 -9.6267662986829275e-02 -1.0118995714972699e-01 -9.2453869242824810e-02 -8.1121748213779404e-02 
 3.0273515706446958e+00  2.8846394063977168e+00  3.1209876340377605e+00  2.7523873176040272e+00  2.9625795702894182e+00  3.1982867285651744e+00 
 1.9751903197851990e+00  2.0202407689083914e+00  2.1174343374807369e+00  2.0603723576048654e+00  2.1657443315616072e+00  2.2761348446321188e+00 
 8.6336981507100086e-01  8.8978358268756852e-01  8.8594531396761778e-01  9.1569171508159564e-01  9.0920797997818836e-01  9.0651156717346659e-01 
 3.8527944757908106e-01  3.2926574845226753e-01  3.5088260222746670e-01  2.7461078663638566e-01  2.9293620299467155e-01  3.1541361818024910e-01 
 2.2302216321338588e+00  2.2896008605682296e+00  2.3173703239854428e+00  2.3248372916385587e+00  2.3750005450203187e+00  2.4184805774096092e+00 
 1.7978437160057731e-01  2.1682842312390918e-01  1.6177286519306727e-01  2.5227182759701439e-01  1.9704635867731493e-01  1.4507694424101561e-01 
 7.8025150312524394e-01  7.7884091682134382e-01  7.9808267280151568e-01  7.7894680295437957e-01  7.9508097817024304e-01  8.1501078064121313e-01 
 2.6021895069553356e+00  2.4867036052048133e+00  2.6273245782435497e+00  2.3877859856545256e+00  2.5059249159387402e+00  2.6227533944876491e+00 
 1.6178647323881488e+00  1.6352230774339922e+00  1.5453465252353040e+00  1.6469117902458128e+00  1.5622456646348628e+00  1.4775268911152830e+00 
 1.5250248610044392e+00  1.5663649721807751e+00  1.6194631895050438e+00  1.6100416293733519e+00  1.6603927556497726e+00  1.7101866654729001e+00 
 5.0751597374499480e-01  5.3446712328689128e-01  5.4635032542102502e-01  5.6382473949709233e-01  5.7170809208544981e-01  5.8368133421805302e-01 
 5.0167693202826513e-01  6.4221515215550184e-01  5.8340587823844803e-01  7.7619687150114425e-01  7.1137088354462619e-01  6.5438743574140512e-01 
 5.9695988447377291e-01  6.3167046039243524e-01  6.2593960259183690e-01  6.6517755444885951e-01  6.5867268714356508e-01  6.5601312534078404e-01 
 1.5792082061249875e+00  1.5947950706496083e+00  1.5129226332461605e+00  1.6100416293733268e+00  1.5322558499575130e+00  1.4455089519872468e+00 
-9.6879205190291764e-02 -8.8180251201593562e-02 -8.8799543576761855e-02 -7.4612545362396115e-02 -7.7143582223397872e-02 -8.0023761509067773e-02 
 3.0437545064223541e+00  3.0551969497041158e+00  2.9300694499143236e+00  3.0548242849588325e+00  2.9487820149203836e+00  2.8241485353339022e+00 
 3.8527944757908261e-01  3.5088260222745793e-01  4.0873099848591449e-01  3.1541361818027169e-01  3.7539103818693553e-01  4.3700616450019814e-01 
 4.0149797036178603e-01  4.3240423842816667e-01  4.4021666121144926e-01  4.6185599571163349e-01  4.6886935394901164e-01  4.8111257236106081e-01 
 2.0902379053366407e-01  2.2424158766164032e-01  2.6094081668481389e-01  2.4314981623524437e-01  2.7975977012823361e-01  3.1541361818024910e-01 
 3.4604590845043331e-02  9.2918336353181682e-02  5.5180141693517461e-02  1.5266695961292867e-01  1.1043473933398681e-01  7.4142704756056332e-02 
 1.6873062277235045e+00  1.5910840683051548e+00  1.5304040556540044e+00  1.5060334855707656e+00  1.4307358580539189e+00  1.3634478912052492e+00 
 2.3894616645547459e-01  2.7120607887855047e-01  2.7293699575756752e-01  3.0746868459235160e-01  3.0425287297957859e-01  3.0587696077208254e-01 
 6.6102295734536198e-01  7.5103435690629550e-01  7.8081516975556897e-01  8.4642226037618062e-01  8.7099888900454303e-01  8.9119353066692764e-01 
 9.1720084711415806e-01  8.9570502406816721e-01  9.1380078963885725e-01  8.7220041051619335e-01  8.9295598797705178e-01  9.1283986465420386e-01 
 4.4465383612746001e-01  4.9791566737819204e-01  3.9913825325038210e-01  5.4427273675400512e-01  4.5179914469158461e-01  3.5803279350916606e-01 
 1.6328376654690164e+00  1.7198197814385263e+00  1.6638618320414160e+00  1.8022029518502076e+00  1.7494667889749445e+00  1.6969731935052188e+00 
 1.8215567208827130e-01  2.3908132696772341e-01  1.7076237689791485e-01  2.9092836343012252e-01  2.2359490654936778e-01  1.6000180408452477e-01 
 1.0741026306471353e+00  1.0745562191053060e+00  1.0034230688875234e+00  1.0755662256291649e+00  1.0077400446604405e+00  9.3785211926422585e-01 
 3.4745273329031617e-01  3.3274011258392033e-01  2.9412354213106129e-01  3.1794614697732049e-01  2.7742805093237549e-01  2.4131730644725158e-01 
 1.1127434538743974e+00  1.0964154956247660e+00  1.1922008234621400e+00  1.0803289758905126e+00  1.1712320541352237e+00  1.2628619749837722e+00 
-1.0473274224028091e-01 -1.0197465908355058e-01 -9.1416278798200301e-02 -9.6650209095687528e-02 -8.7703446557175477e-02 -7.5846757581241417e-02 
 1.0916066427950535e+00  1.0820909679365691e+00  1.1518570409313738e+00  1.0740315836144412e+00  1.1398635021437995e+00  1.2088000682536857e+00 
 6.5428845962371063e-01  7.0691016403791818e-01  6.8046153910801799e-01  7.5993312778029720e-01  7.3630833776869942e-01  7.1113852499282892e-01 
 1.1624310119178372e+00  1.1524374062179974e+00  1.1952279424516667e+00  1.1386258984416402e+00  1.1788540685911584e+00  1.2262055273884815e+00 
 1.1149541656470461e+00  1.1407976789232233e+00  1.1661840578138392e+00  1.1612449851914830e+00  1.1895153999479924e+00  1.2208871497692184e+00 
 7.1451309487867362e-02  1.0469599643418759e-01  5.5847281109755287e-02  1.3533981147730742e-01  8.6216279102647592e-02  4.1430467399813577e-02 
 5.1838113834102761e-01  4.9708752142845170e-01  5.4091621848154703e-01  4.8111257236108584e-01  5.2135378810916566e-01  5.6267741323024445e-01 
 5.2971935313171159e-01  5.2622871618504274e-01  5.6146763902284191e-01  5.2799978891860166e-01  5.5973672439224942e-01  5.9266216290039542e-01 
 2.6204954531145370e-02  4.3115621440407960e-02  6.4492551428700362e-02  6.1827174662887750e-02  8.4359945000361328e-02  1.0626892282991718e-01 
 4.0115154224989796e-01  4.3095662112912597e-01  4.3046144941218900e-01  4.5936448440297645e-01  4.5833443893946429e-01  4.6185599571161479e-01 
 1.7838936198827131e+00  1.8528494851394490e+00  1.7148925301953981e+00  1.9156771916058430e+00  1.7735967803327930e+00  1.6469117902457699e+00 
 8.6445515984318633e-01  8.6170863301105338e-01  8.8531032819092825e-01  8.6336981507103550e-01  8.8594531396761877e-01  9.0651156717346659e-01 
 1.6813138837166466e+00  1.6117080705588953e+00  1.6938395640168438e+00  1.5417643807188430e+00  1.6303418107033527e+00  1.7034202940111487e+00 