<VTKFile type="UnstructuredGrid" version="1.0" byte_order="LittleEndian" header_type="UInt64">
<UnstructuredGrid>
<Piece NumberOfPoints="7326" NumberOfCells="4884">
<PointData>
<DataArray type="Float64" Name="σx" NumberOfComponents="1" format="ascii">
 8.9429384370264875e-01  8.8167505688407832e-01  8.7044289424376975e-01  8.6997097931687273e-01  8.5645588013189766e-01  8.4446744917859995e-01 
 5.1727898189615396e-01  5.0552722640808645e-01  4.7652261232703713e-01  4.9802679634709601e-01  4.6888737511046447e-01  4.3824579531594932e-01 
 1.0739674342884988e+00  1.0793675294952858e+00  1.0372589622891806e+00  1.0840352988641941e+00  1.0404663713500564e+00  9.9865905262068233e-01 
 6.7160752139471291e-01  6.2023093336104029e-01  5.9293055023334940e-01  5.7387365537420987e-01  5.4422716071967359e-01  5.1303277308084783e-01 
 7.9302996733252973e-01  7.3003634682504526e-01  7.1640069229965286e-01  6.7160752139473623e-01  6.5505777682261268e-01  6.3783346767231996e-01 
 5.9473857110225903e-01  6.5012314276958838e-01  6.1710428309229082e-01  7.0556312506279784e-01  6.6993198727588810e-01  6.3865426494207578e-01 
 1.0558830315010455e+00  1.0328357875371457e+00  1.0297147021175275e+00  1.0138127484354815e+00  1.0085774099696043e+00  1.0012324682721208e+00 
 4.9404515239898261e-01  4.1295129975936040e-01  4.4392634708153461e-01  3.3149171654613058e-01  3.6678081397696299e-01  3.9754316446478682e-01 
 2.8852667242548014e-01  2.7889349261510443e-01  2.5714519875963371e-01  2.7363484157570583e-01  2.4779714333781133e-01  2.2488268942949885e-01 
 1.2595599136495907e+00  1.2608145828581681e+00  1.2222178704318580e+00  1.2614397282226499e+00  1.2262531738170761e+00  1.1861660546188675e+00 
 1.3172858829346170e+00  1.2933736761971368e+00  1.3864737652008610e+00  1.2713236096905114e+00  1.3615557327237342e+00  1.4508946059696874e+00 
 4.0419960222242031e+00  3.8169477987983926e+00  3.9805809493740210e+00  3.6165030084406538e+00  3.7622668034443074e+00  3.9074815724811081e+00 
 1.0038208028237436e+00  1.0909218024980420e+00  1.0202725006850142e+00  1.1789535094368984e+00  1.1113663219719441e+00  1.0376441521942283e+00 
-9.9411354005406488e-02 -1.0363052777740975e-01 -1.0633710315890907e-01 -1.0754501747017471e-01 -1.1029875327790724e-01 -1.1015649873972999e-01 
 9.8902339393948024e-01  9.8212202965877093e-01  9.9201624514572284e-01  9.7313745055169820e-01  9.8618779360844711e-01  9.9756429713869599e-01 
 4.0067545280700321e+00  4.0794247814836693e+00  3.8523396635160072e+00  4.1458937969227785e+00  3.9095126818776453e+00  3.6986901067141464e+00 
 4.4498474158060047e-01  4.2984125903589421e-01  3.8713607300282216e-01  4.1619786794725266e-01  3.7455268830321303e-01  3.3099370985624393e-01 
 9.3401962344589839e-01  9.2585800539000462e-01  9.1066609690690148e-01  9.1895114182156568e-01  9.0227739688605868e-01  8.8492809678268414e-01 
 9.0862483229883728e-01  8.8988316907965859e-01  9.2973159730415389e-01  8.6936475239840239e-01  9.1298747754170095e-01  9.5560882243550405e-01 
 2.2935126444820722e-01  1.8207797539392481e-01  1.9189921531132034e-01  1.3612898891843600e-01  1.4750309690417412e-01  1.5820440958074450e-01 
 9.6537266284482592e-01  9.2784795549580890e-01  9.5952533546110075e-01  8.8958730691950993e-01  9.1872622729111797e-01  9.5084125323779956e-01 
-7.2136714401220700e-02 -6.1600591781882361e-02 -5.4988589196955866e-02 -5.0395033845494604e-02 -4.1364189202724631e-02 -3.3069256828467765e-02 
 1.0156386147940277e+00  1.0225250805740300e+00  1.0069878089977076e+00  1.0308548550539958e+00  1.0114416819503449e+00  9.9465934974518977e-01 
 8.8958730691947197e-01  8.5661824819461785e-01  8.8247672339946415e-01  8.2461464379919092e-01  8.4747591703246972e-01  8.7365761463319369e-01 
-6.5562913450910601e-02 -4.7113158306394468e-02 -5.3120568052752934e-02 -2.4251691119259497e-02 -3.1380098637464250e-02 -3.9292182168675249e-02 
 7.4614628180495735e-01  7.2882404809714030e-01  7.3311135961899976e-01  7.1417258902948333e-01  7.1481874751810437e-01  7.1832644116415578e-01 
 7.2213757483301733e-01  7.3066020315479330e-01  7.0900817361200907e-01  7.4281863936166737e-01  7.1772177087734013e-01  6.9412719967898251e-01 
-5.8454420151554949e-02 -4.2305432320891484e-02 -3.7683265380717763e-02 -2.4251694533589281e-02 -1.7962080058280320e-02 -1.2558618576953543e-02 
 1.0430364134928189e+00  9.8873061387897432e-01  9.6705554612769995e-01  9.3011239761884856e-01  9.1007633608497696e-01  8.9207014181171473e-01 
 7.2780481509813677e-01  7.1338813479906948e-01  6.8280950004643803e-01  7.0366934498602385e-01  6.7220863880093873e-01  6.3904221475789991e-01 
 1.8311423432328546e+00  1.8114520699050884e+00  1.7552295539256006e+00  1.7945622361855231e+00  1.7342087040065390e+00  1.6722365087123474e+00 
 9.6698902956424959e-01  9.5485368754425415e-01  9.8193571808130731e-01  9.4067831219507358e-01  9.7170928219278019e-01  1.0012324682721208e+00 
 1.9661373000433582e+00  1.9566479442279925e+00  1.9041986909043627e+00  1.9476123141179289e+00  1.8863047171841287e+00  1.8311423432328564e+00 
 1.0805970330847501e+00  1.1233420933109297e+00  1.0971485827187335e+00  1.1683273303496267e+00  1.1419651046519084e+00  1.1122967415103933e+00 
 1.1834753771493689e+00  1.1872912453262405e+00  1.1571106005975313e+00  1.1836284576802669e+00  1.1553503089152308e+00  1.1297821326815545e+00 
 7.5946794385973437e-01  7.9658665557991704e-01  7.8217455137568170e-01  8.3146768998450749e-01  8.1972062198406714e-01  8.0905578645685194e-01 
 1.0467391159588733e+00  1.0408604221979068e+00  1.0301685281476454e+00  1.0308548550539973e+00  1.0225250805740624e+00  1.0156386147940279e+00 
 7.5379255812948720e-01  7.2195465644123613e-01  7.3764381712150318e-01  6.8852872116937203e-01  7.0470520606588649e-01  7.2347893321717327e-01 
 5.4257867364378681e-02  5.8335675108481221e-02  3.0160344015724667e-02  6.6167306634111953e-02  3.7667818130126082e-02  9.6808540395115130e-03 
 6.6060449932242457e-02  4.6070891911431731e-02  8.5002763642020363e-02  2.6204954531152919e-02  6.4492551428701347e-02  1.0626892282991718e-01 
 7.9677641226296203e-01  7.7675330218960947e-01  8.1854127915268016e-01  7.5512004354722839e-01  7.9857331972921308e-01  8.4285963948137488e-01 
-4.8338158183964683e-02 -2.6948481416635032e-02 -2.9470088885197775e-02 -2.1530284545889884e-03 -4.8280428079375843e-03 -8.5425403597774539e-03 
-5.0160072328579539e-02 -3.2314768714391109e-02 -2.9148391728308812e-02 -1.2558618576953354e-02 -8.0821931911706311e-03 -4.5657367569867198e-03 
 6.8487745816781664e-01  6.5243923695266381e-01  6.7090228982992173e-01  6.2170146767220502e-01  6.4235254893430493e-01  6.6124175973118915e-01 
 6.6010647572214898e-01  6.5609222960969593e-01  6.8771468930126267e-01  6.5601312534081313e-01  6.8537676472584619e-01  7.1479563111790145e-01 
 9.9756429713869577e-01  9.8618779360841635e-01  9.9296846100342750e-01  9.7313745055169765e-01  9.7804771393971934e-01  9.8630000446170596e-01 
 1.6491528437249217e+00  1.5680250976949999e+00  1.5711412037491790e+00  1.4885725975468265e+00  1.4902697649861318e+00  1.4920495313632811e+00 
 1.1875981919818741e+00  1.1868842972468054e+00  1.1431575107153915e+00  1.1861660546189021e+00  1.1452595590078734e+00  1.1009237841207355e+00 
 6.9412719967898207e-01  7.0354037664716496e-01  6.7854196776539466e-01  7.1694522557585394e-01  6.8828231631560577e-01  6.6124175973118915e-01 
 7.3103222170771642e-01  7.9491135782641875e-01  7.4274723932541342e-01  8.6154284337677856e-01  8.1071741857421564e-01  7.5689988231418337e-01 
-1.1581486012350010e-01 -1.1136258320901250e-01 -1.1990675601192460e-01 -1.0536064303039203e-01 -1.1605821878663378e-01 -1.2338403206011550e-01 
-2.6774317317729071e-02 -5.1271882860989736e-02 -3.4312167612226684e-02 -7.2361251874688129e-02 -5.6820183174969022e-02 -3.9618197325893140e-02 
 5.4326426871166278e-01  5.6312192786192461e-01  5.5056574659916568e-01  5.8187971762084445e-01  5.7056858756168860e-01  5.6290861193101782e-01 
 9.4067831219503517e-01  9.2555189684320738e-01  9.5869175735549428e-01  9.0862483229887592e-01  9.4560537222549745e-01  9.8129295397577054e-01 
 3.7772265596270147e+00  3.8462748295636131e+00  3.6471544323484237e+00  3.9074815724812146e+00  3.7064395571429398e+00  3.5251052379661099e+00 
 1.0238232350689147e+00  1.0343579776123391e+00  1.0211828439265758e+00  1.0467391159589092e+00  1.0301685281476458e+00  1.0156386147940279e+00 
 1.1885860895846902e-01  1.2238955878135875e-01  9.0194234392390757e-02  1.2919592703481173e-01  9.7283192589239856e-02  6.5657032566343143e-02 
 9.1447454961632058e-01  9.1880996114200819e-01  8.9051189436926093e-01  9.2255533371697440e-01  8.9264714529717748e-01  8.6576561907867011e-01 
 8.9162650617485895e-01  9.4635472946330212e-01  8.9978149438753308e-01  1.0042629521838393e+00  9.5898486245765524e-01  9.1045226360673903e-01 
 8.6009003958493724e-01  8.5596695204261120e-01  8.2930368831053269e-01  8.5056354906671394e-01  8.2286627909209420e-01  7.9895157300816078e-01 
 1.2817175745814231e+00  1.2687344984143392e+00  1.2905143350254304e+00  1.2566658081856743e+00  1.2822936730453629e+00  1.2885858900118266e+00 
 1.1962627537436994e+00  1.1433719799674389e+00  1.1834887137976742e+00  1.0918791413504911e+00  1.1336762560810980e+00  1.1720790353655000e+00 
 8.6010547297856343e-02 -2.3994129493489749e-02  5.1435683994423120e-03 -1.3563641221899780e-01 -1.1171858095008375e-01 -8.4337990027974832e-02 
 9.2255533371694576e-01  9.2337568624003497e-01  8.9146400310371210e-01  9.2305523978472714e-01  8.8989539509227644e-01  8.6009003958493802e-01 
 7.9895157300816022e-01  7.9058792779860121e-01  7.7033577759627581e-01  7.8081215601550114e-01  7.5980004497567599e-01  7.4281863936164483e-01 
 1.5134854599928345e+00  1.5926942260354642e+00  1.5462065239282554e+00  1.6753047486507853e+00  1.6287491380547796e+00  1.5799827102829056e+00 
 1.1163575533139405e-01  8.4404651224934776e-02  1.1370605816072724e-01  6.0487083568542807e-02  9.0250839879955816e-02  1.2036234790542866e-01 
 7.1523258100995202e-01  6.9319411508660700e-01  6.7095309744697140e-01  6.7534429405310403e-01  6.5281638465272995e-01  6.2867920932042776e-01 
-6.2332092683652474e-02 -8.0524375528459841e-02 -7.0725736615964818e-02 -9.6650209095687556e-02 -8.7985554990846940e-02 -7.6329147190791827e-02 
 1.3328882548634640e+00  1.2614240101226013e+00  1.2555554077279294e+00  1.1930842315303001e+00  1.1842321375579348e+00  1.1748141911883858e+00 
 9.5530516288602041e-01  9.5414303538766909e-01  9.2808320695572200e-01  9.5436008061521294e-01  9.2400384334768515e-01  8.9754424995977711e-01 
 8.6440754538451670e-01  8.5182684174847512e-01  8.8048394873292124e-01  8.3776878993187942e-01  8.6743463255873632e-01  8.9902358393314652e-01 
 2.3894616645547412e-01  2.7293699575755731e-01  2.4472315379834728e-01  3.0587696077208898e-01  2.7840697811832626e-01  2.5507719317273453e-01 
 2.7146924569645496e+00  2.5691299520421271e+00  2.8234863944038513e+00  2.4266808772445860e+00  2.6635250404123125e+00  2.9267758534870723e+00 
 2.4866195217372287e+00  2.4397253233517637e+00  2.6003665177347606e+00  2.3716609921776923e+00  2.5425186536832824e+00  2.7314733551198809e+00 
 3.6460869777253141e-01  3.4495696880880999e-01  3.2745855468816060e-01  3.2941606451779903e-01  3.0796027686958588e-01  2.8944881293687041e-01 
 1.4508946059696866e+00  1.3615557327236916e+00  1.4230580142502165e+00  1.2713236096905061e+00  1.3360731801491490e+00  1.3971659756946975e+00 
 1.3037401599483969e+00  1.3306514202251785e+00  1.2731303259122495e+00  1.3608946299593694e+00  1.2981780110820758e+00  1.2375841103900014e+00 
 9.5436008061518274e-01  9.5485766851334730e-01  9.2189721765797183e-01  9.5675793123702968e-01  9.1949444081010723e-01  8.8616884721262223e-01 
 1.1049589433402440e+00  1.0504223909731818e+00  1.0980727617379435e+00  9.9820192354552817e-01  1.0464239894348308e+00  1.0918791413504445e+00 
 1.0387274294001350e+00  1.0747792679530257e+00  1.0778682281210432e+00  1.1157244102336079e+00  1.1156909971555873e+00  1.1140824053416887e+00 
 1.1232712856704719e+00  1.0339669454489695e+00  1.0044176200495147e+00  9.4920287781752921e-01  9.1373245741909115e-01  8.7279470619946709e-01 
 3.4022025201358741e-01  3.5076372225728436e-01  3.1280831585347918e-01  3.6460869777253840e-01  3.2745855468815988e-01  2.8944881293687041e-01 
 1.0530133222293832e+00  1.0346304949597764e+00  1.0554343586779151e+00  1.0138127484354877e+00  1.0328357875371783e+00  1.0558830315010461e+00 
 8.8146369931156054e-01  9.2935879372236407e-01  8.8538086529525439e-01  9.8086277734493876e-01  9.3787976376130033e-01  8.9162650617485861e-01 
 1.8832596262833434e+00  1.8337884328897605e+00  1.9135425109950337e+00  1.7895375882480631e+00  1.8678229111301061e+00  1.9401670326827725e+00 
 9.1895114182153526e-01  8.9776359749182177e-01  9.0227739688605868e-01  8.7511111304930256e-01  8.7898889476157960e-01  8.8492809678268414e-01 
 7.7657480225431808e-01  7.4768470733401293e-01  7.5308090326820887e-01  7.1764182388701248e-01  7.2232321955547629e-01  7.3023294914801529e-01 
 8.1049904191093913e-01  7.8077502665430576e-01  7.6240476341485319e-01  7.5512004354721640e-01  7.3592587288791134e-01  7.1523258100995302e-01 
 1.0052325874180348e+00  1.0016804092762239e+00  1.0011780396184731e+00  9.9999992094902257e-01  1.0000000626541632e+00  9.9999995141315912e-01 
-4.5426587246883227e-02 -2.4491718101039273e-02 -4.4398857108735271e-02 -5.0984445100265218e-04 -2.3813387457956275e-02 -4.4419839559632912e-02 
-7.4806617437291514e-02 -5.6755945117207440e-02 -6.3368649260603635e-02 -3.3069258904750216e-02 -4.1364206734552753e-02 -5.0395031816860190e-02 
 1.9544035217425806e+00  1.9109924323846419e+00  2.0638881780848664e+00  1.8743882538310432e+00  2.0144524650290796e+00  2.1542384162347594e+00 
 1.1875981919818739e+00  1.1431575107153582e+00  1.1438927887816128e+00  1.1009237841207751e+00  1.0989131259896656e+00  1.0967230084579134e+00 
 3.4993095342550337e-02  1.5828658392209989e-02  4.9400898591718034e-02 -2.7091011722530055e-03  3.0006762067652373e-02  6.6060449932241957e-02 
 1.8185715277475318e+00  1.7627101004158778e+00  1.8521825418054370e+00  1.7101866654729774e+00  1.7979053434126211e+00  1.8832596262833430e+00 
 6.2114608461969056e-01  5.5737002703670269e-01  5.9794918950357490e-01  4.9401250181306378e-01  5.3133870514704096e-01  5.7387365537419488e-01 
-6.5065516758576178e-02 -7.2362572924965049e-02 -5.4053021601456502e-02 -8.0023761509066829e-02 -6.3378682602603598e-02 -4.1895837544223623e-02 
 7.3753389885636778e-01  7.2654988024046852e-01  7.4020296296711408e-01  7.1417258902948566e-01  7.2882404809716317e-01  7.4614628180495757e-01 
 1.9401670326827727e+00  1.9029388247694998e+00  1.9666745954796045e+00  1.8730198704451282e+00  1.9352604667307207e+00  1.9866082193477379e+00 
 1.6396229925471153e+00  1.5551716742419393e+00  1.5634266952961788e+00  1.4694684909297053e+00  1.4717326694389927e+00  1.4726902361500986e+00 
 6.6900021384370856e-01  7.3515760654657736e-01  6.8752194556141588e-01  8.0204503109500414e-01  7.5049494898595792e-01  7.0556312506277852e-01 
 4.8269593694287194e-01  5.2890808008157741e-01  4.7113374496376709e-01  5.7946703498254371e-01  5.2010243112286203e-01  4.5987222656036303e-01 
 1.0138127484354467e+00  9.9126382838603144e-01  1.0085774099696039e+00  9.6698902956428756e-01  9.8193571808130864e-01  1.0012324682721208e+00 
 1.0967230084579132e+00  1.0450418919538014e+00  1.0931102776785042e+00  9.9120028779841585e-01  1.0383800811105015e+00  1.0892920668391448e+00 
 1.1600119729198891e-01  1.1171445004338387e-01  8.3301818051489701e-02  1.1146735746354028e-01  8.2794030388358544e-02  5.4257867364379125e-02 
-4.5426587246882658e-02 -2.6115510081878214e-02 -2.4491718101039017e-02 -4.5657367569865949e-03 -2.0355390419834946e-03 -5.0984445099884945e-04 
 9.0970939641058168e-01  8.7457226182139824e-01  8.6018552374257395e-01  8.4285963948140219e-01  8.2732840988743772e-01  8.1049904191094024e-01 
 7.2213757483301788e-01  7.4216931886535942e-01  7.3066020315481650e-01  7.6371517006905076e-01  7.5400740116741660e-01  7.4281863936164483e-01 
-7.5433497693272830e-02 -6.6685250523865272e-02 -5.9726423346235111e-02 -5.7214240100195463e-02 -4.7926529061587911e-02 -3.9292188063851818e-02 
 2.5827921071834514e-01  2.6061533143102156e-01  2.2533970941711659e-01  2.6699748965794745e-01  2.3214470045309449e-01  1.9680053230770203e-01 
 1.1836284576802285e+00  1.1753755113194806e+00  1.1478464276590292e+00  1.1612449851914728e+00  1.1360421317382292e+00  1.1135216037463536e+00 
 5.5906549363880975e-01  5.2351844194836927e-01  5.6207333345524013e-01  4.8649436513190547e-01  5.2690919890922938e-01  5.6960237623290999e-01 
 1.0833485173548079e+00  1.0753424353703209e+00  1.1410552948416983e+00  1.0667872450566580e+00  1.1364293780133277e+00  1.2033203571987978e+00 
 7.5132451248210386e-02  1.2570578484425479e-01  1.6245305532110077e-01  1.7052550334904018e-01  2.0768126129154191e-01  2.5044531610593346e-01 
 1.2085915771709850e+00  1.2063227309320226e+00  1.2715908419249740e+00  1.2033203571988531e+00  1.2723545373794689e+00  1.3389717822059797e+00 
 1.1590470379542852e+00  1.0857663616127788e+00  1.0730913990316542e+00  1.0150543948231776e+00  9.9929354234919243e-01  9.8075337737598034e-01 
 6.4689866058767753e-01  6.3363282603890081e-01  6.2688604279696070e-01  6.2390038063900866e-01  6.1296818036712108e-01  6.0499709992237760e-01 
 8.2369374343530677e-01  8.0169778482982568e-01  7.7558587537196688e-01  7.8462579415029476e-01  7.5709417722358907e-01  7.2780481509813777e-01 
 3.7678434479925843e-01  3.0764377103744561e-01  4.0353672335736646e-01  2.3045862333973616e-01  3.3209964096332234e-01  4.3317869730963415e-01 
-1.4837828412213966e-01 -1.4009530746500604e-01 -9.9413293470159064e-02 -1.2904922004931521e-01 -8.7290548941803256e-02 -5.0655786739564848e-02 
 8.3580770956279604e-01  8.2707179934031128e-01  8.9340009833413514e-01  8.1861656490628454e-01  8.8797772243066309e-01  9.5464317649354535e-01 
 7.9150028577493969e-01  7.6160749106793357e-01  7.7205437117416442e-01  7.3023294914804371e-01  7.4071117353013716e-01  7.5379255812948742e-01 
 1.1998969372387638e+00  1.2538101986590442e+00  1.2568927739439346e+00  1.3110802814332105e+00  1.3098770970376288e+00  1.3072455087793158e+00 
 7.6569196710080167e-01  7.5031518198368286e-01  7.5648733161380266e-01  7.3753389885639542e-01  7.4020296296711474e-01  7.4614628180495757e-01 
 1.1814070898047826e+00  1.1497228608779237e+00  1.1927028499497396e+00  1.1140824053417369e+00  1.1556505878763192e+00  1.2023250889865429e+00 
 2.0034858384429293e+00  1.9194844636211386e+00  1.8842253594666467e+00  1.8374004692589327e+00  1.8053686982735211e+00  1.7722320591320120e+00 
 1.0214159058068430e+00  9.8601715919400501e-01  9.7301568711238695e-01  9.5560882243553547e-01  9.4020872162979996e-01  9.2313737420915876e-01 
 8.6997097931684297e-01  8.5840921852731367e-01  8.4326935380537671e-01  8.4822876421596138e-01  8.3094713557597999e-01  8.1458048311638065e-01 
 1.6956513540398270e+00  1.6358585559387344e+00  1.7040294270271241e+00  1.5674632802078048e+00  1.6429371563589292e+00  1.7145815184505195e+00 
 1.3201093933231982e+00  1.2664080268723283e+00  1.2488893330774071e+00  1.2088000682537270e+00  1.1939880620809584e+00  1.1806951243301087e+00 
 1.3664347934146648e+00  1.2876336446837640e+00  1.3411780387242718e+00  1.2111560276617583e+00  1.2659071613157606e+00  1.3174691117087576e+00 
 1.1297821326815543e+00  1.1553503089151940e+00  1.1242561160419116e+00  1.1836284576802649e+00  1.1478464276590297e+00  1.1135216037463536e+00 
 9.5675793123700048e-01  9.5981987528979140e-01  9.2013215510489543e-01  9.6448519735381522e-01  9.2051602311010972e-01  8.8027267434361900e-01 
-4.7512505850266104e-02 -2.6230519867559341e-02 -2.5424998604358429e-02 -2.1530265181981161e-03 -5.3949335819581778e-04 -7.6402906964053344e-08 
 9.2313737420915765e-01  8.9370294985025356e-01  8.7371034638131906e-01  8.6936475239839051e-01  8.4738324429958378e-01  8.2369374343530788e-01 
 1.0308548550539616e+00  1.0402324959612950e+00  1.0175389586082269e+00  1.0511805418012514e+00  1.0242922612548409e+00  1.0002080170554875e+00 
 1.4668044746994979e+00  1.4544043473858190e+00  1.4007351651994786e+00  1.4349931438137247e+00  1.3842971468038778e+00  1.3373978469865919e+00 
-4.9033879809093066e-02 -2.8471107787987466e-02 -3.1704779779565380e-02 -4.5657347749464231e-03 -8.0821923942089868e-03 -1.2558618066872232e-02 
 8.3776878993184423e-01  8.6165072008697774e-01  8.6743463255873532e-01  8.8958730691950494e-01  8.9492039118968081e-01  8.9902358393314652e-01 
 1.0511805418012177e+00  1.0330037422421159e+00  1.0242922612548404e+00  1.0106181430687806e+00  1.0046392243675966e+00  1.0002080170554875e+00 
 6.6124175973118871e-01  6.4235254893428440e-01  6.3712302259589593e-01  6.2170146767220102e-01  6.1626660965337088e-01  6.1521575446624188e-01 
 9.6047924476119395e-01  9.4033375989780210e-01  9.4989042628146769e-01  9.1699825043950201e-01  9.2856990510856774e-01  9.4004609258628558e-01 
 4.3417560752239515e-01  4.0362186105198405e-01  4.3405491517790762e-01  3.7160775223983755e-01  4.0335968456641713e-01  4.3824579531594932e-01 
 9.4004609258628491e-01  9.2856990510853832e-01  9.1859530691322255e-01  9.1699825043949801e-01  9.0511711996902844e-01  8.9429384370264942e-01 
 8.1458048311637987e-01  8.0203229308709989e-01  7.8506175262433775e-01  7.9150028577496534e-01  7.7205437117416464e-01  7.5379255812948742e-01 
 1.4059366951171964e-01  1.8548164193724928e-01  1.6847972311056153e-01  2.3198426510439554e-01  2.1620397143441550e-01  1.9943090656134993e-01 
 7.1589796721899537e-02  4.6064464178410284e-03 -2.5695080422593337e-02 -6.8911002619879660e-02 -9.8269148826906946e-02 -1.2402507355195232e-01 
 6.0657652138859697e-01  5.1770824753446798e-01  5.4825557779564094e-01  4.2655579689272383e-01  4.6283552593983185e-01  4.9404515239898367e-01 
 7.1417258902945646e-01  7.0325954495948562e-01  6.9959462624858537e-01  6.9543780654936327e-01  6.8814606746199602e-01  6.8319882246461316e-01 
 4.9353767842971641e-01  4.6466983747993451e-01  4.9367911906733553e-01  4.3417560752241668e-01  4.6464078114540652e-01  4.9802679634708369e-01 
 1.3553897568975550e+00  1.3691714162099964e+00  1.4006447136147426e+00  1.3730641289381058e+00  1.4077899429310903e+00  1.4470005683514762e+00 
 1.1875981919818765e+00  1.1934193459669893e+00  1.2465729978569990e+00  1.1998969372388155e+00  1.2568927739439366e+00  1.3072455087793158e+00 
 6.7118294258286126e-01  7.5988603000392496e-01  6.8889877087913942e-01  8.4871100241801734e-01  7.7412087821497655e-01  7.0464094581529435e-01 
-8.3012228688070483e-02 -6.9264925858321558e-02 -7.7397366696079550e-02 -5.0395033845497914e-02 -6.1600591781884227e-02 -7.2136714401221214e-02 
 4.7536118751644443e-02 -1.1795694937242177e-02  6.7592967854020095e-02 -6.8400759346926202e-02  1.2353948227912175e-02  8.5850008740528255e-02 
 2.0673662562789126e+00  2.0748406184044974e+00  2.0113494687599474e+00  2.0682626330437190e+00  2.0233784695549502e+00  1.9715393197075455e+00 
 9.3279818761244504e-01  9.5266110563630813e-01  9.4570943145323128e-01  9.6914381847663633e-01  9.6465626822451112e-01  9.6116839006018495e-01 
 5.4850359459888653e-01  5.2188718427523118e-01  5.4951797244472123e-01  4.9353767842973972e-01  5.2258225792843960e-01  5.5454223066402752e-01 
 1.2158698841216580e+00  1.1630845043778646e+00  1.1641780860675686e+00  1.1157244102336081e+00  1.1135063848587887e+00  1.1097919818967852e+00 
 2.9406934464590012e-01  2.5567936156975235e-01  3.1189334961238846e-01  2.1474511385738554e-01  2.7141129782572365e-01  3.3070659141475028e-01 
 7.4281863936164438e-01  7.3066558632311562e-01  7.1772177087734024e-01  7.1694522557585683e-01  7.0354037664718727e-01  6.9412719967898251e-01 
 1.3124944250085941e+00  1.2545894900719872e+00  1.2660191399172653e+00  1.2023250889865877e+00  1.2099410704370870e+00  1.2158698841216593e+00 
 7.6576625030999523e-01  7.4404165451990489e-01  7.3509079969692381e-01  7.2347893321719769e-01  7.1171586068658954e-01  7.0267141572212022e-01 
 5.9826335622328297e-01  5.7428150577035542e-01  6.0033212268684133e-01  5.4850359459891174e-01  5.7590670893727813e-01  6.0612863390952310e-01 
 1.3351430041031771e+00  1.0413922544215255e+00  1.4158913744800194e+00  7.2596157634387104e-01  1.1527945091054934e+00  1.5026313095506141e+00 
 3.0749663175786429e-01  3.3998550530429278e-01  2.8345588352124462e-01  3.7135774601771421e-01  3.1605377827325426e-01  2.6251305633171723e-01 
 8.7848460108559312e-01  8.6916731076096909e-01  8.3147758319079657e-01  8.5926937873459985e-01  8.1955864128084543e-01  7.8406162143577207e-01 
 1.0106181430687440e+00  9.8438571727793733e-01  9.8123824580713703e-01  9.5436008061521826e-01  9.5414303538769907e-01  9.5530516288602119e-01 
 1.9608592474736708e+00  1.9935808347718906e+00  1.9479448697141772e+00  2.0129137468559697e+00  1.9784364895210680e+00  1.9407054350510440e+00 
-4.4468768882218061e-02 -6.2776007280094109e-02 -4.3408140908911909e-02 -7.9391065007199640e-02 -6.1208209290922355e-02 -3.9579240503254488e-02 
 2.1057580798329120e-01  1.4014733385809314e-01  9.7620133687012473e-02  6.2970994237867756e-02  2.0169573960464805e-02 -1.8549313724246480e-02 
-5.7413474045458164e-02 -3.9305024218641696e-02 -6.1312581624690325e-02 -1.8961693571149341e-02 -4.5118936210618896e-02 -6.5975596144185245e-02 
 1.1505772511789010e+00  1.1961519351765544e+00  1.2138937796265443e+00  1.2375841103900498e+00  1.2577057935674072e+00  1.2801913922046755e+00 
 8.6904820350077605e-01  9.0148893523295137e-01  8.5159040569753508e-01  9.3197321098411801e-01  8.8281624330654840e-01  8.3581468133566761e-01 
 3.0587696077208204e-01  3.1152734078619476e-01  2.7840697811832665e-01  3.2116628686841292e-01  2.8868466101761059e-01  2.5507719317273453e-01 
-8.3239550352053757e-02 -6.9321418406446914e-02 -7.7106545061221249e-02 -5.0395031816863792e-02 -6.0084318784939798e-02 -7.0346880768482875e-02 
 8.8492809678268369e-01  8.5977887083830951e-01  8.6655738229013990e-01  8.3296650279611606e-01  8.3958288950463522e-01  8.4822876421593385e-01 
 1.6990460897848132e+00  1.6093122740282475e+00  1.6709228359151216e+00  1.5194859294660297e+00  1.5818130893501954e+00  1.6430076830728080e+00 
 1.1041299094044339e+00  1.0676082656704191e+00  1.1067422589132807e+00  1.0295359922868579e+00  1.0678975398726638e+00  1.1074544249623148e+00 
 9.4134686822119062e-01  9.5256723828360224e-01  9.1976671423901890e-01  9.6164759954847356e-01  9.3081495114557844e-01  9.0142032837024733e-01 
 1.0012324682721205e+00  9.7170928219274999e-01  9.9226606191887812e-01  9.4067831219507259e-01  9.5869175735549506e-01  9.8129295397577054e-01 
 6.9512451801580910e-01  6.6299262222439170e-01  6.9733980970921383e-01  6.2918465219048603e-01  6.6563408338598962e-01  7.0366934498600442e-01 
 3.5153379370387999e-01  3.2061334470675418e-01  3.3467513522087178e-01  2.8852667242549451e-01  3.0279149715931414e-01  3.2116628686840759e-01 
 4.9570991010200516e-01  4.8888753983043037e-01  4.5139315433647120e-01  4.8649436513189054e-01  4.4884152594252230e-01  4.0976854026566695e-01 
 1.4753228279062303e+00  1.4022185736155337e+00  1.4169539467275607e+00  1.3330133484585720e+00  1.3436808543165795e+00  1.3545489761301830e+00 
 7.1694522557583240e-01  7.0171127109959797e-01  6.8828231631560588e-01  6.8487745816783951e-01  6.7090228982992184e-01  6.6124175973118915e-01 
 6.0612863390952243e-01  5.7590670893726026e-01  5.8119297446702878e-01  5.4850359459890718e-01  5.4951797244472189e-01  5.5454223066402752e-01 
 1.4191139801465835e+00  1.3353335984786026e+00  1.3441571810453459e+00  1.2535849635640013e+00  1.2593021132781990e+00  1.2659990597170527e+00 
 9.6234429103499852e-01  9.4222375413699777e-01  9.4878959077751301e-01  9.1895114182157023e-01  9.2585800539003382e-01  9.3401962344589895e-01 
-7.4819142098706215e-02 -8.3624732648595754e-02 -8.5158064436979986e-02 -9.0674708671798984e-02 -9.1344079203390188e-02 -9.3159302508994860e-02 
 7.5071553172400729e-01  7.2487744253910158e-01  7.8732478665484673e-01  6.9774453175409268e-01  7.6374762646857164e-01  8.2890895313160529e-01 
 7.4754611375194802e-01  8.0988148251704284e-01  8.6392557554051441e-01  8.7774408726598807e-01  9.3038190006666222e-01  9.7479492746387120e-01 
 8.1090863634237287e-01  7.3377661534554817e-01  7.4189443549882983e-01  6.5226556409612702e-01  6.6564824893821717e-01  6.7622979746686129e-01 
 6.8319882246461272e-01  6.7066662061154636e-01  6.6598893701272488e-01  6.6151992570676721e-01  6.5279760977270374e-01  6.4689866058767809e-01 
 9.1699825043946670e-01  8.9456236471965478e-01  9.0511711996902811e-01  8.6997097931687739e-01  8.8167505688410630e-01  8.9429384370264942e-01 
 7.8915534456728498e-01  8.0520293269710075e-01  8.1310889180878065e-01  8.2461464379918725e-01  8.3196554530882982e-01  8.3776878993184345e-01 
 2.2991471152014604e+00  2.2216578231687278e+00  2.3759038369714558e+00  2.1542384162348647e+00  2.2974858886381773e+00  2.4350221676829613e+00 
 7.8915534456728420e-01  7.6652545337802269e-01  7.7875873220037817e-01  7.4614628180498632e-01  7.5481399032459051e-01  7.6678993516458671e-01 
 6.7534429405308360e-01  6.3956982994053302e-01  6.5281638465273006e-01  6.0612863390954708e-01  6.1537527577531037e-01  6.2867920932042776e-01 
 9.8129295397577021e-01  9.4560537222546814e-01  9.6933182989209987e-01  9.0862483229887425e-01  9.2973159730415478e-01  9.5560882243550405e-01 
 4.3668360820015145e-01  4.0116385353852779e-01  4.2512697591499476e-01  3.6460869777255045e-01  3.8908282014409712e-01  4.1710567200960691e-01 
 6.6010647572214753e-01  6.3283411756764885e-01  6.2624928816075298e-01  6.0517964893398157e-01  5.9659096946798185e-01  5.9266216290039542e-01 
 4.6314133441680583e-01  4.4711460078272464e-01  4.1657607829661725e-01  4.3205508533303094e-01  3.9836590857162135e-01  3.6965165627405711e-01 
 8.4285963948137443e-01  7.9857331972918832e-01  8.2732840988743739e-01  7.5512004354722573e-01  7.8077502665433063e-01  8.1049904191094024e-01 