<VTKFile type="UnstructuredGrid" version="1.0" byte_order="LittleEndian" header_type="UInt64">
<UnstructuredGrid>
<Piece NumberOfPoints="7326" NumberOfCells="4884">
<PointData>
<DataArray type="Float64" Name="σy" NumberOfComponents="1" format="ascii">
-1.2869345544178665e-01 -1.1584436168374397e-01 -1.5303567865822806e-01 -1.0024333128797507e-01 -1.3564036881413841e-01 -1.7234834670053167e-01 
 3.5374415053044506e-02 -1.8417837094267739e-03  6.8783493831144349e-02 -4.1552300138580356e-02  2.5873094545702191e-02  1.0199212219067012e-01 
-1.0142299171342692e-01 -1.2073119840144786e-01 -9.6635204432436575e-02 -1.4163505405975124e-01 -1.1544014400427753e-01 -9.0192925186553197e-02 
 2.9898581873294106e-01  2.9455341479886282e-01  3.2582090540101161e-01  2.8417528826681326e-01  3.1697357909702401e-01  3.3969370864282034e-01 
-4.7996657909780455e-01 -5.3798105145159436e-01 -5.2898603475421802e-01 -6.0007517131907440e-01 -5.9275960840457831e-01 -5.8288461898161037e-01 
 1.8820236399913661e-03 -3.0241632393057214e-03 -3.5972851162222166e-05 -9.3625801041060559e-03 -7.5482236280777892e-03 -3.6323052733002181e-03 
 1.7413546901916502e-01  1.2328835291717057e-01  1.3823650091618422e-01  6.0220298639549551e-02  7.9204662971927853e-02  1.0032375312607544e-01 
-4.2773137603670068e-02 -1.9858642458454340e-02 -8.4100959629102329e-02  1.6919513620004749e-03 -6.7096834891632082e-02 -1.2768038749010696e-01 
-4.6002236582165434e-01 -4.6172863044747831e-01 -4.3356492689078657e-01 -4.6148134386343492e-01 -4.3216124998622890e-01 -4.0653842337995527e-01 
-2.4401086310478678e-01 -2.3685413323866741e-01 -2.1303008675374449e-01 -2.2665209077579962e-01 -2.0579445867390261e-01 -1.8289189865296474e-01 
-2.2579109785698498e-01 -2.4778895472440024e-01 -2.5160152335878011e-01 -2.6409713555181868e-01 -2.7235467526729101e-01 -2.7499075439063825e-01 
-4.7996657327874953e-01 -5.2898608135078695e-01 -4.7073784469706698e-01 -5.8288461462343422e-01 -5.1901020858883484e-01 -4.5965257723287734e-01 
-1.1601058381686435e+00 -1.1952465557976457e+00 -1.0856999803769867e+00 -1.2291084874550073e+00 -1.1169667150757820e+00 -1.0145465260209627e+00 
-1.3644971053769128e+00 -1.3798843875841940e+00 -1.2920261043638563e+00 -1.3932083299660558e+00 -1.3044529048587883e+00 -1.2215185340684254e+00 
 6.6343541396207614e-03 -2.0066114205129246e-02 -8.0415616848175751e-03 -4.8789410689553239e-02 -3.7082945693432526e-02 -2.4841871664068482e-02 
-4.5533689361892099e-01 -4.1799224692713466e-01 -4.0314488341314314e-01 -3.7375537601607567e-01 -3.6083028421748647e-01 -3.5172396265520001e-01 
 4.1127725814562054e-02  3.2783356204371873e-02  6.2827473784987695e-02  2.3045684191681244e-02  5.5144283840672229e-02  8.3710648234963755e-02 
-5.1156552244316622e-01 -5.6012395502416823e-01 -5.3776693776309936e-01 -6.0732332027839520e-01 -5.9124004113479522e-01 -5.6906208603763564e-01 
-1.8450558643587120e-01 -1.9620605494661947e-01 -2.1856303519827847e-01 -2.0867363942438463e-01 -2.3262207359187131e-01 -2.5494814605981353e-01 
-1.2984344538204757e+00 -1.3216010031427399e+00 -1.3704849518978646e+00 -1.3399226632373318e+00 -1.3939103181766463e+00 -1.4471715921719133e+00 
 1.0487858438014393e-01  1.2083941124946816e-01  1.1689848811641949e-01  1.3724948825807740e-01  1.3318912658676188e-01  1.2849443342736958e-01 
-5.1156560727074596e-01 -4.8364414082648249e-01 -4.6238045113414150e-01 -4.4948071375428950e-01 -4.2944793546232884e-01 -4.1372877470380581e-01 
-3.3486914696061865e-01 -3.6326442847786394e-01 -3.0887729844475587e-01 -3.9355155340967318e-01 -3.3526622593118749e-01 -2.8211502173916142e-01 
 3.4318996363105375e-01  3.5543914246679664e-01  3.6134007415093572e-01  3.6760955438560533e-01  3.7601110648179042e-01  3.8193277588914293e-01 
-7.7564956554901865e-01 -7.7409049821717524e-01 -8.2382273967900199e-01 -7.6789079557666340e-01 -8.2322505810733171e-01 -8.7826643909690605e-01 
 2.7453335110815680e-01  3.0456045363673401e-01  3.0238466081059356e-01  3.2915516602035377e-01  3.2846488349287195e-01  3.2042908955105753e-01 
-1.0717626455216578e-01 -6.7613314184165940e-02 -5.2917389376544464e-02 -1.9531969898967303e-02 -4.0882469021113572e-03  8.7346165296786626e-03 
 1.2683000537865950e-02  9.4458294764581379e-03  1.7055414490146123e-02  6.5943410196770942e-03  1.2723627113422559e-02  2.0942926206464485e-02 
-3.8934960219365516e-01 -3.6386362179867104e-01 -3.6798955761792335e-01 -3.3198557878402818e-01 -3.4060944647879715e-01 -3.4885332321202511e-01 
 7.8253590500555942e-02  7.8456953617404276e-02  9.3234038000376412e-02  7.8150148205904685e-02  9.3671424924910637e-02  1.0906077536653816e-01 
-7.2187141015179568e-01 -7.6493505237952297e-01 -7.1902875507638564e-01 -8.1369780807116399e-01 -7.6195220090355276e-01 -7.1015040753916825e-01 
-5.3201449475518670e-01 -5.7723005701924524e-01 -5.7773524362202755e-01 -6.2332066818055942e-01 -6.2788329639774210e-01 -6.2921931040681245e-01 
-2.9086197032611510e-01 -2.7257671900581026e-01 -2.5459420534677818e-01 -2.5046253679607622e-01 -2.2818498328681586e-01 -2.0786237365593568e-01 
 9.7573359151642940e-03  1.2796023595414504e-02  6.6445280938689268e-03  1.5243156345817639e-02  8.2770011385562663e-03  3.5440096722185732e-03 
 2.1215434644554984e-03 -6.8832951643927782e-03 -2.3790776327161922e-03 -1.7784885702277105e-02 -1.0040587804249403e-02 -4.6297937601749162e-03 
-8.8340788813604265e-01 -9.2490583364993895e-01 -9.3814637978151838e-01 -9.6164189079569296e-01 -9.8182014370070059e-01 -9.9858244550437836e-01 
-6.6742264996757339e-01 -6.0841437733511405e-01 -6.4795377087237449e-01 -5.5049249116128840e-01 -5.8323741948571539e-01 -6.2259048683706586e-01 
 2.0861094326142496e-01  1.9433513307375991e-01  2.0366709681817791e-01  1.7892055535595530e-01  1.8888951343317639e-01  1.9783121594515027e-01 
-1.2082284738142737e+00 -1.2408565602514101e+00 -1.1533847107414028e+00 -1.2716717647025313e+00 -1.1814833120807207e+00 -1.0997014598879549e+00 
-4.4989564003075283e-01 -3.9967644321275547e-01 -4.1490295759138979e-01 -3.5012726473283495e-01 -3.6005198092490798e-01 -3.7375538187742091e-01 
-5.2897801008038570e-01 -5.7453023402574077e-01 -5.6387662728670918e-01 -6.2193346782503300e-01 -6.1322160078547894e-01 -6.0134358657716491e-01 
 3.6981752463825942e-03  7.8405689780619101e-03  3.4590548888295929e-03  1.2739148034097206e-02  6.8713455964073879e-03  2.9664957316951623e-03 
 1.3276160392447642e-01  7.5110929716014282e-02  7.1789589078549390e-02  9.1886532488003412e-03  3.3193687937988531e-03  3.6952740642126614e-04 
 2.7985682511571436e-01  2.7555898696676234e-01  3.0491048513950497e-01  2.6480591914200852e-01  2.9601387575167981e-01  3.2155157664216905e-01 
 5.7056879267799863e-02  1.0396179068016335e-01  8.6466487992081037e-02  1.5218723453948338e-01  1.3846007903019339e-01  1.2612911278748273e-01 
-8.6127272596700985e-02 -1.1255043168237487e-01 -5.6128501528319094e-02 -1.4422143978190216e-01 -8.8275268056255685e-02 -2.6345053888381188e-02 
 1.4471301842087952e-01  1.8417315828051337e-01  1.6493341426182745e-01  2.2201190500867016e-01  2.0445674268519240e-01  1.8629377633856004e-01 
-2.5386555831966107e-01 -2.7120412571849822e-01 -2.7697695879187401e-01 -2.8617118858316498e-01 -2.9361090219264663e-01 -2.9557732768941614e-01 
 2.1215494012934047e-03 -7.1569429804106829e-04 -6.8833148623166102e-03 -4.8932913270768822e-03 -1.2772989362389547e-02 -1.7784882535817226e-02 
-1.3080146255451433e-01 -1.9017088969972434e-01 -1.7351931572747387e-01 -2.4075276325300191e-01 -2.2890613494488948e-01 -2.1901780844557320e-01 
-4.1156332601961881e-01 -3.6216364839789245e-01 -3.7488870241877481e-01 -3.1371379206565181e-01 -3.2065690644001654e-01 -3.3146168766920608e-01 
-3.1655279773833522e-01 -3.6461496633212365e-01 -3.2218150834342374e-01 -4.1372886082464561e-01 -3.7611947384723832e-01 -3.3146167907062540e-01 
 6.3462191050115496e-02  8.7289750930139867e-02  7.8744982254594337e-02  1.1477142385776001e-01  1.0273664172465798e-01  9.4259156141480782e-02 
-3.1183630392260731e-01 -3.2204371711187540e-01 -3.3336269164445687e-01 -3.2966075121115912e-01 -3.4330192786293079e-01 -3.5100879171804189e-01 
 1.7171994338869803e-01  1.5385296781253976e-01  1.5361811612738049e-01  1.3523095913185471e-01  1.3464105212583324e-01  1.3271406183354612e-01 
-1.5632370001852380e+00 -1.6031116546946251e+00 -1.5132478369855895e+00 -1.6417548080104027e+00 -1.5488679110719941e+00 -1.4621598368662829e+00 
 1.5865825206947362e-01  1.0052256817249287e-01  1.1187606773641075e-01  2.9417612540736982e-02  4.3567449406898440e-02  6.0220193756647333e-02 
 1.2202537002989867e-01  7.7377666818613605e-02  6.9657338824662129e-02  2.9417470390341722e-02  1.7918559227893621e-02  9.1886981300570714e-03 
-2.5652284704379652e-01 -2.3465476729363710e-01 -2.1809670015055788e-01 -2.0786240092641806e-01 -1.8820525727393420e-01 -1.7047845803448336e-01 
 1.4903009291956879e-01  1.9790883222689395e-01  1.5992823603858697e-01  2.3661964675182431e-01  2.0607042858232083e-01  1.7252967418239473e-01 
-4.4989555975112783e-01 -4.7108837600903186e-01 -5.0054031280612810e-01 -4.9720412450424634e-01 -5.2679350521998980e-01 -5.5049255121601226e-01 
-2.5178340450427589e-01 -2.5101566416627974e-01 -3.0003426256496252e-01 -2.5338932356035443e-01 -3.0515986989831040e-01 -3.5012735668587952e-01 
 2.4077788680182713e-01  2.9693273267248627e-01  2.1425927924055543e-01  3.5562391856537917e-01  2.6541310603022428e-01  1.8412457856039255e-01 
-8.5111128051544208e-02 -7.0173695528120569e-02 -5.8194298601360044e-02 -5.4340109182087683e-02 -4.3158064484782370e-02 -3.3289478164799935e-02 
 3.2937215236996747e-01  2.9645374349774994e-01  3.9974024921651941e-01  2.6053427565651965e-01  3.6192601212331982e-01  4.7598646641490661e-01 
-8.4809751747259277e-01 -9.3302216088565693e-01 -8.9177018012906373e-01 -1.0251381728860365e+00 -9.8015290534164345e-01 -9.3468950768334591e-01 
 3.2807557837520479e-01  3.9747605991746465e-01  3.0623489400579040e-01  4.7232317058414691e-01  3.7176581827648342e-01  2.8063637944170045e-01 
 1.7604458404535789e-01  2.6096987065997407e-01  2.0061943560619916e-01  3.5562400623512863e-01  2.8641559017555318e-01  2.2202894040612725e-01 
-4.1817969717816961e-01 -3.8322580312557875e-01 -4.4554259699006116e-01 -3.4889488564131488e-01 -4.0802917292105700e-01 -4.7350823536803149e-01 
 8.8690812594429472e-02  1.3140919252295136e-01  1.3050360608856729e-01  1.8356116022147040e-01  1.7522288606085415e-01  1.7042362692588719e-01 
 3.9766352139435507e-01  3.6878114285931840e-01  3.9046723720184762e-01  3.4460434280100433e-01  3.6269059943878190e-01  3.8193278205690939e-01 
-4.4821982101501073e-01 -4.7009055553822698e-01 -5.1102259828764429e-01 -4.9104904065168409e-01 -5.3449753496987862e-01 -5.7983166251584073e-01 
-2.9859110716548259e-01 -3.1892693713816878e-01 -2.6712682633654083e-01 -3.3663545043331111e-01 -2.9140234352000050e-01 -2.3828729412076008e-01 
-1.4662937604874948e+00 -1.4790299979745825e+00 -1.5351577030704497e+00 -1.4881944730647980e+00 -1.5470943037300517e+00 -1.6071200360587323e+00 
-2.4439737799802133e-01 -2.5931232749229949e-01 -2.9440851445748645e-01 -2.7349855792164773e-01 -3.0937774135977170e-01 -3.4893762219975522e-01 
 9.8231694945473194e-02  1.2766915794916864e-01  1.7683931163456187e-01  1.5286196990874432e-01  2.0732829903112424e-01  2.6424934777858694e-01 
 3.0241776841896884e-01  3.0391810836923311e-01  3.0420613495328308e-01  3.0404381856798285e-01  3.0480497311737698e-01  3.0417662286690417e-01 
 8.3861362900403871e-02  7.3912916023165617e-02  8.8180647628917086e-02  6.2977386190103318e-02  7.6867200349807013e-02  9.1570147276998692e-02 
-1.7451180453567909e-02 -2.7786168334318410e-02 -1.4915037292288382e-02 -4.0403240698268034e-02 -2.5183800368889630e-02 -1.0445326793935394e-02 
-1.0883735764565352e+00 -1.1793048681539919e+00 -1.1452027807158642e+00 -1.2770078990535476e+00 -1.2417038740903532e+00 -1.2027083918316959e+00 
-1.3571845711367188e+00 -1.4044221829907229e+00 -1.4346208709879169e+00 -1.4512088990247396e+00 -1.4858767553374548e+00 -1.5169857345426758e+00 
-1.5172305636808752e+00 -1.5209804615528542e+00 -1.4338587196082517e+00 -1.5213459359206223e+00 -1.4361397297040355e+00 -1.3548386100496901e+00 
 3.5374262845860302e-02  1.1052760680286922e-01  6.6358021618814184e-02  1.9508994452046954e-01  1.4346058621915170e-01  9.4100502346126186e-02 
-4.4248771642464191e-01 -4.6179113109342956e-01 -5.0305115113206611e-01 -4.7942134639502759e-01 -5.2235125122388115e-01 -5.6905349867690458e-01 
-9.8223589242527123e-02 -1.1827105047122390e-01 -6.5558322801759994e-02 -1.3932716253348607e-01 -8.7254325661841672e-02 -2.7064206706478244e-02 
 6.4164389524186946e-02  6.3953757646943443e-02  4.5541908244699260e-02  6.3253930879167225e-02  4.5774810339471263e-02  2.5697016338049730e-02 
 3.9104376527289424e-02  8.1991991065880565e-02  6.8748483806558916e-02  1.2612935051794072e-01  1.1641016853297795e-01  1.0767867139394272e-01 
-4.4458529333235595e-02 -7.3871694431995497e-02 -4.1317448914941789e-02 -1.0863959866538700e-01 -7.0728540603297932e-02 -3.7251944008390936e-02 
 2.0376831092755227e-01  2.0218090427584989e-01  2.1332931145989567e-01  1.9956776837837623e-01  2.1127577399937114e-01  2.2189387598737068e-01 
 2.2394876549082782e-01  2.1541479199855817e-01  2.1415648943641219e-01  2.0604806909260073e-01  2.0529111578733197e-01  2.0376831955208768e-01 
-3.6499447803631185e-01 -3.4238290376280872e-01 -3.5613812158076436e-01 -3.1268144227387629e-01 -3.2674937864129205e-01 -3.4316543019816154e-01 
-7.2601809353270472e-02 -8.6621309419370504e-02 -5.5744643384140161e-02 -1.0105364723793341e-01 -6.7003905650662068e-02 -3.8711895467516189e-02 
 2.6536353749922503e-01  2.6336276395970998e-01  2.6451287267848556e-01  2.5852113204276544e-01  2.5869259425803731e-01  2.6124040802750781e-01 
-1.2984345010251994e+00 -1.3276791056740085e+00 -1.2505518453241282e+00 -1.3549723722665252e+00 -1.2754940834392134e+00 -1.2018956590344494e+00 
-4.2773263726813289e-02 -1.3755961063503558e-03  2.5212184665183445e-02  3.7424135329701867e-02  6.9928833211453906e-02  1.0199211401289562e-01 
 9.7574396729138112e-03  1.6774975587310136e-02  1.2795997011457658e-02  2.5963205791259106e-02  2.0680331437558985e-02  1.5243217800652797e-02 
-2.4217615511698365e-01 -2.5875901631291975e-01 -2.2793593210171983e-01 -2.6748766054312212e-01 -2.4377242526310605e-01 -2.1309953721689601e-01 
-3.5032139098606058e-01 -3.2870591965215840e-01 -3.3033083971960431e-01 -3.0569561358575292e-01 -3.0936385401348659e-01 -3.1211420272599322e-01 
-3.9043258819245291e-01 -3.9751205326206934e-01 -3.8629821123150287e-01 -4.0463077827144350e-01 -3.9109794940459858e-01 -3.7655161937761350e-01 
-2.2579522183148606e-01 -2.3743565721845694e-01 -2.5826958530317495e-01 -2.4642480546594997e-01 -2.6914297815349908e-01 -2.8933573353490527e-01 
 2.8408540302096064e-01  2.9537618975899543e-01  3.2013168047637974e-01  2.9898698179713895e-01  3.2610766815932724e-01  3.4599036773200298e-01 
-8.8340795542129735e-01 -8.8075627844737281e-01 -8.3238953719856734e-01 -8.7447748528375024e-01 -8.2559214441421336e-01 -7.8198703669484193e-01 
-6.8342886691721352e-02 -5.9908091503079651e-02 -9.5338029805574986e-02 -4.4043465578789784e-02 -8.6053036677583059e-02 -1.2257775374846114e-01 
 1.7604476991143597e-01  1.3624673811303187e-01  2.2693990387778834e-01  9.4100332386670066e-02  1.8122125453844656e-01  2.7995490261962142e-01 
-2.5768138471287651e-02 -3.3909487590080285e-02 -5.7379478766969458e-02 -4.3419681416674148e-02 -6.8040290915607329e-02 -9.2070891324152582e-02 
-1.9362962091674563e-01 -2.2349401258572069e-01 -2.2117392473252981e-01 -2.5096627291014484e-01 -2.5090879655932879e-01 -2.4642470653108650e-01 
-3.7725411847241314e-01 -3.7766628646909900e-01 -3.4303961417284901e-01 -3.7734843014389841e-01 -3.4126060196049474e-01 -3.0904436916250622e-01 
-1.7451155962183079e-02 -2.8953371540828599e-02 -2.7786168024613929e-02 -4.0491151850044545e-02 -4.1676788179954696e-02 -4.0403215510812218e-02 
-5.3088052062361857e-01 -5.4504158907157529e-01 -5.9531639364468070e-01 -5.5748407617032925e-01 -6.0940930129749071e-01 -6.6515488711923976e-01 
 2.0861095943896199e-01  1.9945629181398625e-01  1.9433513979114941e-01  1.8912611177181052e-01  1.8448906674350835e-01  1.7892057380806808e-01 
 4.4181679178272135e-02  8.3193992498965669e-02  6.4949596465582099e-02  1.2496500742825489e-01  1.0935796364640515e-01  8.9760251242715805e-02 
-1.2222715267228468e-01 -1.1130068319600141e-01 -1.4197010454407200e-01 -9.5505544744521317e-02 -1.2566454378723491e-01 -1.5733726047769270e-01 
-2.8933568080030186e-01 -2.6914302270050616e-01 -2.9680535610299918e-01 -2.4642477647248417e-01 -2.7499773254273269e-01 -3.0051441010746927e-01 
-3.6786537106243418e-02 -4.6059425928253489e-02 -2.8795510337739593e-02 -5.3080879128299958e-02 -3.5290745594631689e-02 -2.1408187687746660e-02 
 1.5355447113635398e-01  1.4399355242748926e-01  1.6315534214851365e-01  1.3348563376606795e-01  1.5290166470502242e-01  1.7220589928878730e-01 
-2.8617111773643922e-01 -3.0774496630140796e-01 -2.9361087655564611e-01 -3.2507134405950261e-01 -3.1145265916104398e-01 -2.9557717988291576e-01 
 1.9517414979332352e-02  3.0514372623327228e-02  2.1972040683797135e-02  4.3520717106565396e-02  3.3954003000880063e-02  2.4580505966321109e-02 
-4.3929263049408013e-01 -4.5329111915512149e-01 -4.3804040527064386e-01 -4.6796331666112179e-01 -4.4950710557145723e-01 -4.3259992918764500e-01 
-5.3088053176898042e-01 -5.7743835698417956e-01 -5.1149999394552836e-01 -6.2664613404060054e-01 -5.5584457503329965e-01 -4.9104902997764477e-01 
-7.9024407127531193e-01 -8.5993616007280238e-01 -8.1899464704659597e-01 -9.3468950241554050e-01 -8.9028425638865294e-01 -8.4588469363631480e-01 
 3.2937189528768973e-01  4.1980508671488592e-01  3.5124760509503827e-01  5.1929529840894795e-01  4.4117856153935825e-01  3.6953647163140457e-01 
 3.4318996995656487e-01  3.3040864428035116e-01  3.5543915704962886e-01  3.1755272243075983e-01  3.4011132940018834e-01  3.6760962173573897e-01 
-5.3542832753138508e-02 -2.7350519054966202e-02 -6.7843343411716661e-02 -2.4331709723957938e-03 -4.0593990471580577e-02 -8.3233387390708430e-02 
-3.1655286874207905e-01 -2.7022084905101190e-01 -2.6703663932030491e-01 -2.1616129676447796e-01 -2.1593033341226692e-01 -2.1901769456965264e-01 
 3.7156550144057093e-01  4.4263371338681584e-01  3.5162592245576768e-01  5.1975220882451145e-01  4.1937733029486446e-01  3.2807532610806184e-01 
-2.5178350264643778e-01 -2.0364295931584978e-01 -1.9833422769268927e-01 -1.5738642386100848e-01 -1.4616183056275697e-01 -1.3722356016078824e-01 
 4.1127722792531018e-02  2.8855748718621989e-02  1.5235903430808280e-02  1.6525025519870101e-02  2.9619773517706558e-03 -1.2675416276306917e-02 
-3.8242686638013879e-01 -3.7674224626777769e-01 -3.7268805454806142e-01 -3.6655544788062389e-01 -3.6695381728071430e-01 -3.6265879514834032e-01 
-1.7520638104011107e-02  3.3195573923697499e-02  2.0409231581959758e-02  8.8810838954789903e-02  7.9420168631910967e-02  6.8947486289258286e-02 
-4.4853687527949054e-01 -4.7283323791111626e-01 -4.2171425670780815e-01 -4.9878927381076493e-01 -4.4413429677225180e-01 -3.9386172495918215e-01 
-1.3080145617967678e-01 -6.9146907214389222e-02 -8.5737461969680559e-02  1.6919549774805289e-03 -1.9160260816350017e-02 -4.1552172838560095e-02 
-9.4016882672766658e-02 -8.1220380347428289e-02 -1.2053405546921736e-01 -6.9090049657866887e-02 -1.0670453858781528e-01 -1.4887548280978896e-01 
-2.5892370027789963e-01 -2.4282770690994565e-01 -2.7443044766172991e-01 -2.2473846526248070e-01 -2.5700124909933703e-01 -2.9020193311289799e-01 
-3.0872327079464296e-01 -3.1776016525153339e-01 -3.2897425734094388e-01 -3.2405416651743885e-01 -3.3751220793840103e-01 -3.4555445543610253e-01 
-2.5768116523987999e-02 -4.2958979284801755e-03 -3.3909519715862209e-02  1.7390230477383636e-02 -1.1407366644129486e-02 -4.3419665172446165e-02 
-2.0189928292909354e-01 -1.7537367199541057e-01 -1.5873506408138999e-01 -1.4117202152408637e-01 -1.2337621336894818e-01 -1.0717612649631492e-01 
-3.9094413228501179e-01 -3.7989965700863176e-01 -4.3245836626496492e-01 -3.6739231963109237e-01 -4.2097429663096003e-01 -4.7879285518608500e-01 
-2.8541364528703872e-01 -3.0708338772566535e-01 -2.9060887310513184e-01 -3.2389979560395754e-01 -3.0734123116811513e-01 -2.8865246898651131e-01 
 6.4619672949260396e-02  6.8404657410206654e-02  4.7191411736846066e-02  6.9714930291796304e-02  4.7858889400229976e-02  3.0154445367145066e-02 
-4.5179773016194613e-01 -4.4403317968906419e-01 -4.7843162287224456e-01 -4.3788754091622395e-01 -4.6721341664035199e-01 -4.9937324997224719e-01 
-1.3080136714463256e-01 -1.7351927715290588e-01 -1.1632057158298179e-01 -2.1901779735575533e-01 -1.6587321987378800e-01 -1.0473077706426481e-01 
 1.2157584327792256e-01  1.2204758065973205e-01  1.7625977343841587e-01  1.2226882233000187e-01  1.8183226667437044e-01  2.4484050982529959e-01 
 2.9091018655237061e-01  3.1470763592805556e-01  3.7888085666918236e-01  3.3523428450298759e-01  4.0295378956124234e-01  4.7598645422724495e-01 
-7.1717883321417888e-02 -1.0855582080318658e-01 -9.5868604991485695e-02 -1.4971573500587984e-01 -1.3488952725020667e-01 -1.2107974133437509e-01 
 4.1863843983678495e-01  4.9456517643092024e-01  4.1362034035782180e-01  5.7874611048802915e-01  4.8822930185676222e-01  4.0441315635150382e-01 
-1.2494457070513318e-01 -1.4685730620100693e-01 -1.1777390802104772e-01 -1.6947536060950219e-01 -1.3766738379984089e-01 -1.0757565032881955e-01 
-1.8508856610988618e-02 -1.8695209476857075e-02 -3.5073365694791039e-02 -1.7852858371678548e-02 -3.3118886760145010e-02 -5.2211817944364913e-02 
-1.4163505242704044e-01 -1.3618132507294528e-01 -1.1544010896601976e-01 -1.2917955323140298e-01 -1.0880133936092280e-01 -9.0192932957462446e-02 
-7.0507495480792337e-01 -6.4876499821255296e-01 -6.9168253295133342e-01 -5.9730864734221178e-01 -6.4086993920990010e-01 -6.7781130441335979e-01 
 2.2394876017366705e-01  2.1415648716833433e-01  2.2323695615779593e-01  2.0376830946542529e-01  2.1332931424154822e-01  2.2189387136897459e-01 
 3.0343044086031207e-01  3.2827213156035107e-01  3.1165156441369374e-01  3.5653696851722444e-01  3.3979052690854988e-01  3.1977132787011137e-01 
-3.4247151695059508e-01 -3.1161209530715633e-01 -3.6811790824795876e-01 -2.8093012468664430e-01 -3.3527638914333358e-01 -3.9532089173900570e-01 
 7.8253555203742456e-02  9.1661411777357704e-02  7.7234412445507730e-02  1.0487858637177579e-01  8.9811983529444001e-02  7.5446397056298409e-02 
-1.8450550572240482e-01 -2.1856295466228987e-01 -2.0524953460959541e-01 -2.5494805331916653e-01 -2.3948825444800281e-01 -2.2473857528566049e-01 
-2.3885908945476433e-01 -2.1777250339357351e-01 -2.1786763735784295e-01 -1.9637762917425577e-01 -1.9822885794564091e-01 -1.9599937893122255e-01 
-1.8450559051622115e-01 -1.6167687541211206e-01 -1.9620611974953700e-01 -1.3770355929300163e-01 -1.7169523974981668e-01 -2.0867364650653458e-01 
-8.6127362931650644e-02 -9.7920353259716049e-03 -2.7463199555403793e-02  7.8193307879631857e-02  5.5727356002943290e-02  3.2099651860363280e-02 
-5.2897800197369116e-01 -5.6387665523631270e-01 -5.0523680449747832e-01 -6.0134357211491030e-01 -5.3813453092345809e-01 -4.7942132998208398e-01 
-2.6682630228648568e-01 -2.3645553846062209e-01 -2.6395794453261484e-01 -2.0571842090766021e-01 -2.3179652641457013e-01 -2.5892369311772945e-01 
-1.0024333400338155e-01 -1.1640392243120372e-01 -1.3564023471478459e-01 -1.2497178402551185e-01 -1.5100133785872699e-01 -1.7234833456063492e-01 
 3.1033387894092573e-01  3.0812924922024454e-01  2.8036597710358951e-01  3.0348621024344435e-01  2.8220390361782205e-01  2.5642602943428350e-01 
 8.6377793098168426e-02  6.0531562830482735e-02  1.0096772357007484e-01  3.1635052201025068e-02  7.2469875414168980e-02  1.1683424166386713e-01 
 5.0318740335902959e-02  4.8562770268398586e-02  6.3596153724335927e-02  4.6477133669628745e-02  6.1951426644645202e-02  7.8150196168594366e-02 
 3.6823865990456150e-01  4.4061341303671175e-01  3.5404356710380980e-01  5.1929526926028802e-01  4.2307484645253363e-01  3.3523401712777690e-01 
 2.3731878567820650e-01  2.2152991601714117e-01  2.3773431079907600e-01  2.0648967895649400e-01  2.2505674057711136e-01  2.4064143252172132e-01 
-3.1281599267878824e-01 -3.4070107843918240e-01 -3.4337534589841839e-01 -3.6810893773898451e-01 -3.7269980763004551e-01 -3.7725413298715549e-01 
 2.2406965246322247e-01  2.0745798747263891e-01  2.1372225666992598e-01  1.8826610430831822e-01  1.9563757607273297e-01  2.0157904286884804e-01 
 2.9938836652823869e-01  2.9640389818968749e-01  2.9471079827736840e-01  2.9257406788528822e-01  2.9109298565603986e-01  2.8793527839910232e-01 
 1.3271404356186106e-01  1.3464106343359669e-01  1.1398216127685651e-01  1.3523094465408672e-01  1.1630752159802298e-01  9.4719919285322349e-02 
 2.6512515267815490e-01  2.6246957466459875e-01  2.6548833231582891e-01  2.5474073650183626e-01  2.6010323888563741e-01  2.6592033433604062e-01 
 2.8364536870952566e-02  4.8937188242289811e-03  4.0912726889519205e-02 -2.2887059033803801e-02  1.4080013834371035e-02  5.6419293723319885e-02 
 2.5987878403673637e-01  2.5837943562156862e-01  2.4808779720260751e-01  2.5613443625789184e-01  2.4613357123689969e-01  2.3498361233351911e-01 
-4.8933286238657288e-03 -9.9393573066633156e-03 -1.9758723107898078e-02 -1.5980493720129833e-02 -2.7926639905605313e-02 -3.6937067244833532e-02 
 2.3408382980980566e-01  2.0457186795244675e-01  2.8776057521078319e-01  1.7168543713552517e-01  2.5348686314276631e-01  3.4389920558330495e-01 
-2.0742611908837383e-01 -2.2378614117571249e-01 -2.3641249907335363e-01 -2.4062646271010416e-01 -2.5415882890816027e-01 -2.6538596898139227e-01 
 4.1127724482564118e-02  6.2355783411695932e-02  2.8855740392633587e-02  8.0778038691089127e-02  5.0088999767348381e-02  1.6525035867811538e-02 
 2.6053451722573323e-01  2.4322765176192940e-01  3.3718445975817285e-01  2.2202871206196620e-01  3.1608685219681509e-01  4.2122203896051225e-01 
 1.5192268245720289e-01  1.4229252331530937e-01  1.5960314849288748e-01  1.3162916144098380e-01  1.5005394240336395e-01  1.6608625872623003e-01 
-6.8342610420821848e-02 -3.4792058155921513e-02 -5.9907768151346137e-02  3.5373137124108641e-03 -2.0054124181319112e-02 -4.4043187849655663e-02 
 4.0514730980240665e-01  3.9022668613257461e-01  4.7691721860068131e-01  3.7156524895078025e-01  4.5950319095669279e-01  5.5532271438785630e-01 
-4.6002234407605158e-01 -4.8969328349271735e-01 -4.6172865452849143e-01 -5.2377154161965744e-01 -4.9315474710135071e-01 -4.6148132541258119e-01 
 2.2394876488718746e-01  2.2905582847805056e-01  2.1541479674037839e-01  2.3394531833227653e-01  2.2021339000720588e-01  2.0604806327231145e-01 
 3.2671698923342035e-01  3.2266190685997792e-01  3.4868554079762415e-01  3.1791202378348526e-01  3.4214169124369653e-01  3.7183908376448987e-01 
-1.1120549254554422e-01 -1.4275127447853161e-01 -1.2481599708410092e-01 -1.7639252448090914e-01 -1.5579258285474148e-01 -1.3492318279579363e-01 
-1.5733708330088098e-01 -1.4217131756576529e-01 -1.7202443641814183e-01 -1.2126400064483636e-01 -1.5091561096532513e-01 -1.8035761746709444e-01 
 8.3486735690893515e-02  1.1260619815064188e-01  9.9395096933725530e-02  1.4607942628280243e-01  1.2732742820925860e-01  1.1477110829678677e-01 
 2.3731869140675346e-01  2.1986217166348546e-01  2.2152971150132822e-01  1.9830927709132623e-01  2.0115501214013937e-01  2.0648954131538491e-01 
 2.3126305749679516e-02  3.3465897174534139e-02  3.6751185423032018e-02  4.4652657551704257e-02  4.8816539893085729e-02  5.3492802391477690e-02 
-5.4653599924616647e-01 -5.7932302626757359e-01 -5.7173978629448219e-01 -6.1697855194237361e-01 -6.0839488404197928e-01 -5.9546880249071954e-01 
-2.5693433686771872e-01 -2.7062992243985146e-01 -2.4978899524418574e-01 -2.7785177847543130e-01 -2.5763143626334362e-01 -2.3569674243108441e-01 
-3.0872334599527507e-01 -3.2897439674237222e-01 -3.1962941856920879e-01 -3.4555452746506377e-01 -3.3626585347406024e-01 -3.2507121050127363e-01 
 4.5554024829824180e-01  5.1960154100346734e-01  4.3873628065456954e-01  5.8994195481031031e-01  5.0085949089396398e-01  4.1863814983129405e-01 
-5.4653599184694279e-01 -5.4023058967179782e-01 -5.1759952949975097e-01 -5.3033691588596354e-01 -5.1262349317580092e-01 -4.9240271524488555e-01 
-2.6497013435084465e-01 -2.1541250839905429e-01 -2.5715658125366447e-01 -1.5738652539536160e-01 -2.0364297983447796e-01 -2.5178351139100003e-01 
-1.0142300892127862e-01 -1.2443981441811808e-01 -1.2073121876998026e-01 -1.4815911703324799e-01 -1.4582508230404481e-01 -1.4163507003433373e-01 
 4.0274038926748251e-01  4.0038145857275631e-01  4.8153149427506381e-01  3.9502937008384309e-01  4.7900918286632493e-01  5.6993959134753114e-01 
 2.6530658620748993e-01  2.7645073500202216e-01  3.0784380776015496e-01  2.7985758791782767e-01  3.1332847533936947e-01  3.3918701580092114e-01 
-1.8899395122896009e-01 -1.4897607433233115e-01 -1.9574649154135204e-01 -9.7505016291278765e-02 -1.5478891570173342e-01 -2.0375423903862855e-01 
 2.7159648014488486e-01  2.5503665396754566e-01  3.4008344840097271e-01  2.3408363959845888e-01  3.1943739435342638e-01  4.1350128275341674e-01 
 2.7086597535649698e-01  2.6985790913206875e-01  2.6740837589073363e-01  2.6591819743171774e-01  2.6592203745684251e-01  2.6536354469139939e-01 
-4.7996655346604361e-01 -4.9028421691715307e-01 -5.3798100195843213e-01 -4.9878928281170709e-01 -5.4688180697645428e-01 -6.0007514237397497e-01 
 9.2070668554712812e-02  1.7346011069402345e-01  1.3336667181372514e-01  2.6424929968092337e-01  2.1731507672777639e-01  1.7168559281324325e-01 
-1.4662937972387575e+00 -1.4995137603183346e+00 -1.4030300963065794e+00 -1.5314875649306379e+00 -1.4320241007310401e+00 -1.3399226503303852e+00 
-8.4588469808512901e-01 -8.9028425389098509e-01 -9.2459979781775092e-01 -9.3468950727112332e-01 -9.7309442178402350e-01 -1.0095840470765922e+00 
 6.0077350570238656e-02  1.5903603680221631e-02  7.8701237772890245e-02 -2.4839429477397465e-02  3.1607085471995790e-02  9.3226500964184250e-02 