<VTKFile type="UnstructuredGrid" version="1.0" byte_order="LittleEndian" header_type="UInt64">
<UnstructuredGrid>
<Piece NumberOfPoints="7320" NumberOfCells="4880">
<PointData>
<DataArray type="Float64" Name="σy" NumberOfComponents="1" format="ascii">
 1.7635113036903703e-02 -1.2199326570089358e-02 -6.0742529194356080e-03 -4.5216595671735485e-02 -3.6050158385182537e-02 -2.7717216401078160e-02 
 2.1459704771028096e-01  1.7898448157285063e-01  2.3857982451807941e-01  1.3961882071395373e-01  1.9817196150651334e-01  2.5797267757282738e-01 
-1.0779556830093369e+00 -1.1311328845978892e+00 -1.0397093587080450e+00 -1.1832268306150757e+00 -1.0853496084897865e+00 -9.9875801478412485e-01 
-3.4173724032490044e-01 -3.6896831834451477e-01 -3.1031990725849229e-01 -3.9532088471213261e-01 -3.3527640416952265e-01 -2.8093010807460322e-01 
 2.3048634089177067e-01  1.9487945487753353e-01  1.8209502113916659e-01  1.5845899133746155e-01  1.3957522213254631e-01  1.2202561393747802e-01 
-2.3055871089696842e-01 -2.0761225729360946e-01 -2.5633694950923913e-01 -1.8625805742289489e-01 -2.3169884726005405e-01 -2.8211501432169339e-01 
-2.8887121404812515e-02 -2.1976667875820272e-02 -5.2047498914910874e-02 -1.6157036314588816e-02 -4.0926513173139535e-02 -7.5208440253528241e-02 
 2.0265694390407843e-01  1.5158376704434307e-01  1.9916141029288548e-01  1.0918029486450376e-01  1.5735690618898696e-01  2.0045605334657968e-01 
-1.7918865474032716e-01 -1.9426472849999096e-01 -2.0580421725457743e-01 -2.0742603196745768e-01 -2.2165112927375433e-01 -2.3347310315094333e-01 
 2.6053429902135067e-01  1.8634702765611819e-01  1.5538327626720561e-01  1.1994555198536827e-01  9.4068176169633602e-02  6.3746304363245854e-02 
-9.1173588900273439e-02 -6.6373749549590910e-02 -1.0964857893053573e-01 -4.3593241362043081e-02 -8.2076052845504954e-02 -1.2717667654329967e-01 
-1.0900709001812096e-01 -9.5907523658397040e-02 -1.2651966097250300e-01 -8.2586565741249715e-02 -1.1082341014507842e-01 -1.4317970849477935e-01 
-4.0050116321452339e-01 -3.7021867276788267e-01 -3.6242118174593685e-01 -3.4422657200020251e-01 -3.3530607254582778e-01 -3.2413987378111281e-01 
-2.2841951359175106e-01 -2.6276323632487186e-01 -2.4317587045238420e-01 -2.9337273923221840e-01 -2.7466760372063564e-01 -2.5096615108893661e-01 
-9.4351840914289539e-02 -6.8570045353696860e-02 -1.0970874803791331e-01 -4.3981500885513565e-02 -8.0040012359149523e-02 -1.2222712510089839e-01 
 1.4607919976264697e-01  1.1656353229084906e-01  1.7543995760359243e-01  8.2794744762373224e-02  1.4634593440930216e-01  2.1905671388100811e-01 
-4.5487390654713017e-01 -4.5115145907085774e-01 -4.2620135440823081e-01 -4.4636531897219872e-01 -4.2515364688080859e-01 -3.9880533107190469e-01 
-7.8140280482441191e-02 -9.3548510254358175e-02 -1.1482262040599162e-01 -1.0208600159983643e-01 -1.3004381966832274e-01 -1.5443201740068402e-01 
-3.9481484779427983e-01 -3.9901665772287037e-01 -4.0580180758893447e-01 -3.9454087653772546e-01 -4.0741618677338470e-01 -4.1727987262965166e-01 
-5.9657253722885363e-02 -1.7472176900468303e-02 -4.5723298432108796e-02  7.7444273216538097e-06 -1.0420975088697083e-02 -3.2586243235959489e-02 
 9.5777517470965745e-03 -5.4330239853308669e-02  2.4271483816654352e-02 -1.0222158251080898e-01 -3.9997756234654083e-02  3.7051635490713219e-02 
 1.7120469678718597e-01  2.6419441691080181e-01  2.4502865711912411e-01  3.7156524141287828e-01  3.5162583503294770e-01  3.2807545431667490e-01 
-3.1401426672831903e-06  1.1550049566315764e-04 -5.3285437630547754e-03  1.6680041581880757e-04 -2.8272350648421976e-03 -8.5448198640762918e-03 
 1.7808218622868457e-01  2.0343060496127061e-01  1.1569917827983807e-01  2.1908984197048106e-01  1.4636939056461440e-01  8.2782431809016066e-02 
 1.9854407716631984e-03  2.4249478140807661e-03  5.3608049775029929e-03 -3.4192706657077340e-06  5.2690125772103299e-03  1.0437944558726153e-02 
-1.5412957149904973e+00 -1.6192621153849323e+00 -1.4996737114856467e+00 -1.6992211933051000e+00 -1.5718653598269579e+00 -1.4536769012034734e+00 
 2.6817555672936239e-01  2.5391238041040515e-01  2.6730400158566325e-01  2.3745781789319736e-01  2.6058057325686612e-01  2.7085890742032026e-01 
-1.0145465589006253e+00 -8.9370887686752265e-01 -9.3332346669060040e-01 -7.8592960332997019e-01 -8.2125379082218675e-01 -8.5540556725371641e-01 
 1.7956599287485520e-01  1.1814352398616992e-01  2.0032382736810939e-01  8.5069786911795536e-02  1.4619546616043136e-01  2.1300679526355618e-01 
-2.3135344966296298e-01 -2.7049477882338735e-01 -2.0014553114241351e-01 -3.0279863462946410e-01 -2.4406886243627288e-01 -1.7478617638576016e-01 
 2.3596533661407892e-01  2.3465262695209518e-01  1.8558217938402385e-01  2.3581047934331442e-01  1.8768169251156896e-01  1.2674356348681526e-01 
-3.0001143969741559e-02 -1.4500020538315022e-02  5.6526604384887463e-02 -5.6107169285372774e-03  6.7941526748742542e-02  1.5286183860386091e-01 
-1.7918880313570218e-01 -1.6300208616368969e-01 -1.9426479795648052e-01 -1.4320373162610225e-01 -1.7433852458381160e-01 -2.0742611725951016e-01 
 2.7159629624240861e-01  2.9712318105339647e-01  1.9092023368655983e-01  3.1926142135442243e-01  2.1171723025941394e-01  1.1903676346541597e-01 
-4.2973085712396752e-01 -3.8036943666217476e-01 -3.7719574522382116e-01 -3.1655291826470222e-01 -3.1938631675010520e-01 -3.2400099748107536e-01 
-1.2601132253831471e+00 -1.3462070444055467e+00 -1.2492650671185395e+00 -1.4354168857267153e+00 -1.3300112044338657e+00 -1.2324564171060588e+00 
 7.8401500822311759e-02  3.8906347759470945e-02  6.7017188917638984e-02  1.3900392535744667e-02  3.1282268951137782e-02  4.5599630677668423e-02 
-1.5494884691946088e-02 -3.3837802474835213e-02 -3.9528663410848416e-02 -5.3268980823166570e-02 -6.2896394086356500e-02 -7.2601455809845339e-02 
-7.3755960517115182e-01 -7.2970373918560949e-01 -8.0964944340426770e-01 -7.1616274744658304e-01 -7.9978688980109236e-01 -8.8929284677784270e-01 
-6.6742262823155452e-01 -6.1041764949012034e-01 -6.0841438591721186e-01 -5.6541149913767719e-01 -5.6004440056188209e-01 -5.5049257239479987e-01 
-1.4337478371564516e+00 -1.4369229136427071e+00 -1.3437940510367710e+00 -1.4354168872961064e+00 -1.3462070372372348e+00 -1.2601132306518801e+00 
 2.6956257966777009e-01  2.3849609393519663e-01  2.2965462980061110e-01  2.0265714438207733e-01  1.9916066779758304e-01  2.0045650290934103e-01 
-5.5181283184131913e-01 -5.1163678082633679e-01 -5.3860559197253222e-01 -4.7095248807501650e-01 -4.9092172885175456e-01 -5.1585135701981244e-01 
-2.1630350398861245e-01 -1.9749056719423061e-01 -2.4073687930428364e-01 -1.7529772459451393e-01 -2.1981851056404714e-01 -2.6207968431970974e-01 
-1.6551906115186571e-01 -2.0612547503633821e-01 -2.1901123139471862e-01 -2.3766016779618987e-01 -2.5015386415033863e-01 -2.6515097162373880e-01 
 1.6010736179551552e-01  1.5345149613389999e-01  1.4034596249651721e-01  1.4539805754336979e-01  1.3248593071643766e-01  1.1724202844005309e-01 
-7.2187135781240985e-01 -6.7886253915208716e-01 -7.3685813441323411e-01 -6.4070294618486578e-01 -6.9033100630525179e-01 -7.4618683815515829e-01 
-1.6801197095604592e-01 -1.4101371564968251e-01 -1.1983242771182032e-01 -1.1443853202253074e-01 -9.3430030550173751e-02 -6.3544561071359862e-02 
-2.6682649468629971e-01 -2.8933858874877261e-01 -2.9720973300961573e-01 -3.1183802984529951e-01 -3.2045759133509771e-01 -3.2648992468207905e-01 
-8.6837879527163409e-01 -7.8860866035751043e-01 -8.3073176873680965e-01 -7.1616281253071101e-01 -7.5457310699071289e-01 -7.9124781757582718e-01 
-2.9098662592261532e-01 -3.2293541569922318e-01 -2.8391940600619514e-01 -3.4019591743165095e-01 -3.1351848566960916e-01 -2.7719113439307475e-01 
-8.5119528234561947e-01 -9.2983300251393519e-01 -8.5286967917647116e-01 -1.0156016555499263e+00 -9.3084727462736028e-01 -8.5015582862244798e-01 
-2.2579533497970997e-01 -2.4638820992510241e-01 -2.1268664802905218e-01 -2.6442892624661385e-01 -2.3007064631746754e-01 -1.9599915796216116e-01 
-2.8887385359340250e-02 -5.2047442594090929e-02 -5.8703272877285245e-02 -7.5208867539551305e-02 -8.6164992035049445e-02 -9.6558709636269335e-02 
-4.1939010459044551e-01 -4.2052532250096203e-01 -4.0559564970367556e-01 -4.1727982870514080e-01 -4.0741616756079130e-01 -3.9454099954913652e-01 
 9.5779567633861602e-03 -4.6897634217186970e-02 -5.4330077884441760e-02 -9.7832999234393730e-02 -1.0037810859874993e-01 -1.0222101275649964e-01 
-1.3048274166105767e-01 -1.5913224441709542e-01 -1.1234537323123056e-01 -1.9123409448974049e-01 -1.4081104521612994e-01 -9.3669798750900646e-02 
-6.6618592736111715e-01 -6.5168156280417533e-01 -7.1844370103479682e-01 -6.3204152032580119e-01 -7.0184627736152394e-01 -7.7558954523003898e-01 
 3.0348621241294010e-01  2.7767108416617275e-01  2.8220407596105701e-01  2.5994053538507877e-01  2.5778713322765184e-01  2.5642591219987199e-01 
-1.3871286676618599e+00 -1.4956093043087950e+00 -1.4796827584107566e+00 -1.6126909331762167e+00 -1.5974858568157482e+00 -1.5773575730635856e+00 
-1.5039383521754877e+00 -1.4509244597343331e+00 -1.3860557900225783e+00 -1.3948045260676822e+00 -1.3357457897315774e+00 -1.2770079282958566e+00 
 3.6969022415431885e-01  3.1278396256876351e-01  3.5930781510765847e-01  2.6956249751076938e-01  3.0817470767876309e-01  3.4751633532317827e-01 
 8.3861375410390473e-02  7.8660942938190676e-02  6.5597045524729766e-02  7.2528186619896198e-02  6.1168962738834133e-02  4.8974617459087433e-02 
-3.9105761807617112e-01 -3.6822836264015807e-01 -3.9600810074355519e-01 -3.4422653222276306e-01 -3.7021867633771977e-01 -4.0050117408207719e-01 
-7.4150036911885120e-01 -6.7372685803435761e-01 -7.2458727124798517e-01 -6.1545292930609008e-01 -6.5613759627249746e-01 -7.0276100466315383e-01 
 1.4122994888364546e-01  1.7128371447281990e-01  1.1492319789898538e-01  2.1297481224497625e-01  1.4616816221719647e-01  8.5073549544648297e-02 
-2.8345718293657951e-01 -2.6569967062915845e-01 -2.9977498361826060e-01 -2.4630433594899578e-01 -2.8100435544357116e-01 -3.1313083598020564e-01 
-2.9896019595455249e-06 -5.3284878174298831e-03 -5.9407563574414160e-03 -8.5447823625708734e-03 -1.2288072294858546e-02 -1.4858188081972257e-02 
 2.9103734193972786e-01  2.1132371917284834e-01  2.7575754715722095e-01  1.4147638341618038e-01  2.0155368412534294e-01  2.5993451920841937e-01 
-8.7026406277074109e-01 -8.1384279063915776e-01 -8.2379725431084128e-01 -7.6262327864029567e-01 -7.7385939391528946e-01 -7.7859846430776591e-01 
-8.1555316443841994e-02 -1.2551068633266013e-01 -1.0229109463669772e-01 -1.7428031119874693e-01 -1.4843639192036812e-01 -1.2386029042481408e-01 
-1.4350009419837932e+00 -1.3196880079430922e+00 -1.3590357280451217e+00 -1.2132640180697150e+00 -1.2500394257245135e+00 -1.2834624355069026e+00 
-1.1492725206102902e-01 -6.9967936167288983e-02 -5.2259356682055787e-02 -3.0001086391167189e-02 -3.6171305460549067e-03  1.9325231438791321e-02 
 4.1127736659203086e-02  6.2827488451638144e-02  6.2355798215988793e-02  8.3710612601290812e-02  8.2873840635666066e-02  8.0778089659806457e-02 
 4.3546601906131382e-01  4.4344462395613771e-01  3.9864810841963083e-01  4.4522240259779172e-01  4.0368548496150042e-01  3.6760968051864529e-01 
-7.1133502089055223e-02 -1.2894531463339290e-01 -7.5023989717714207e-02 -1.8518472832368008e-01 -1.3905012829748947e-01 -8.6127431521338102e-02 
 3.2937190663877908e-01  2.1660334871489739e-01  2.9645364431739030e-01  1.1994548213222619e-01  1.8634697644753484e-01  2.6053429905264852e-01 
 8.0778062488939970e-02  8.2873835089232586e-02  1.0321688310692048e-01  8.3710587769322886e-02  1.0564669199763692e-01  1.2459751338653641e-01 
 1.9859657870793667e-03  1.2645850572282273e-03  2.4250045715435440e-03  1.6679714195178398e-04  1.1548830972022633e-04 -3.0109184460114236e-06 
-1.2014175723297878e-02 -1.0843801711580378e-02 -2.6099391726222406e-03 -8.5447048565175671e-03 -2.8152464490946473e-03  6.7743053278057630e-08 
-1.2082284747153804e+00 -1.2371031672334429e+00 -1.2834415096143501e+00 -1.2600345360129905e+00 -1.3131834844657937e+00 -1.3644254679137822e+00 
-1.1064505719154877e-01 -1.2749470254694878e-01 -9.7294865450218343e-02 -1.4317945670774801e-01 -1.1082334743098880e-01 -8.2586241870233279e-02 
-2.2841938117655680e-01 -2.5145274807752788e-01 -2.6276350185294811e-01 -2.6841527260346609e-01 -2.8370600868879176e-01 -2.9337265517407418e-01 
 2.9007785819408674e-02  2.8016124239067946e-02  3.9645605329502995e-02  2.5939452054687451e-02  3.8628417925276042e-02  5.1840062243232843e-02 
 2.0915096327929563e-02 -2.2951895501650780e-02  5.6082247294954785e-02 -7.1133520401557945e-02  5.6490802977053681e-03  9.2070654863546611e-02 
-3.8745800417223464e-01 -3.6763675811865010e-01 -3.9237166084285668e-01 -3.3797786800422625e-01 -3.6935913812440141e-01 -4.0075575710799305e-01 
 1.9011358127539602e-01  2.0789808703019824e-01  2.3401786455980161e-01  2.2569513340408515e-01  2.4364451890284589e-01  2.6621803122532373e-01 
-1.1443779455673371e-01 -1.0282412903957876e-01 -6.2606777889678777e-02 -8.7396951454590852e-02 -5.4603830362245948e-02 -8.4963119027513523e-03 
-4.7672909109175149e-01 -4.3817094243732468e-01 -4.7047196751993592e-01 -4.0050120114649534e-01 -4.2787929443854644e-01 -4.5998303789561945e-01 
-7.1133512120304027e-02 -7.5024008283015947e-02 -2.2222398165063464e-02 -8.6127426654547562e-02 -2.7463154475609489e-02  3.2099552361010093e-02 
 1.7020205702686318e-03  9.7071624451956317e-04  6.4355026435895897e-03  5.3173188640972039e-04  3.6706960894655992e-03  9.3011160755787636e-03 
-3.4247151123918196e-01 -3.5553087449022769e-01 -2.9147703060484481e-01 -3.6739237264863595e-01 -3.0430196025197093e-01 -2.4590719664508778e-01 
-5.9547590266818251e-01 -6.3799554833454664e-01 -6.2010272788659471e-01 -6.8704371954263421e-01 -6.6761834404348885e-01 -6.4070299187840851e-01 
-2.3055872336373059e-01 -1.7843021857620223e-01 -2.0761225428321470e-01 -1.3163845795599935e-01 -1.5876278615401596e-01 -1.8625807228296337e-01 
 9.3226458398719222e-02  3.1607028517712618e-02  5.7330462295944379e-02 -2.4839430144517484e-02  1.4467504609370835e-03  2.2913482403282670e-02 
-6.4070296492810075e-01 -6.6761847147654174e-01 -6.9033100549511694e-01 -6.8704372818649218e-01 -7.1711842834862727e-01 -7.4618682951741810e-01 
 1.0245934300394831e-01  7.5516610806179912e-02  8.5169112074893305e-02  4.4483086932972885e-02  5.5224780315321763e-02  6.5068535652327453e-02 
-1.4517881212568788e+00 -1.3868045704223695e+00 -1.3374764450898278e+00 -1.3207539195047266e+00 -1.2773338687845790e+00 -1.2317826973366106e+00 
-1.6992211996381301e+00 -1.6803774952332498e+00 -1.5718653912376075e+00 -1.6568213543347532e+00 -1.5524392169732288e+00 -1.4536768927542303e+00 
-8.5627527435929423e-03 -2.2390575075110771e-02 -1.1773310033457371e-02 -4.3221356252073080e-02 -2.9830020277232250e-02 -1.5279248840397885e-02 
-4.2973072524214345e-01 -4.2255053855906222e-01 -3.8036935087499124e-01 -4.1372886654023161e-01 -3.6461501823737885e-01 -3.1655281748934055e-01 
-6.1049749177782087e-01 -5.7904442722511096e-01 -5.6193058785067673e-01 -5.5181285364291643e-01 -5.3860547558939609e-01 -5.1585129158518217e-01 
-1.4720793271931771e+00 -1.5416340904584840e+00 -1.4314887140921797e+00 -1.6126909331068666e+00 -1.4956092980838411e+00 -1.3871286752351091e+00 
-1.6551919094871695e-01 -2.1901139032797956e-01 -1.6074337214660789e-01 -2.6515060491323433e-01 -2.1876882893328103e-01 -1.5790172174793760e-01 
 2.1665284781189259e-01  2.3623022789362780e-01  2.2591436796076420e-01  2.5554496020013417e-01  2.4178371619723063e-01  2.3471490585999638e-01 
-5.2897797807984026e-01 -5.0523681044527435e-01 -4.7452652411750373e-01 -4.7942135832440885e-01 -4.5169606167427073e-01 -4.2549501820734692e-01 
-1.3629765366944269e+00 -1.2702063860444830e+00 -1.2712089214710705e+00 -1.1828317011576066e+00 -1.1871218071281713e+00 -1.1849915693246145e+00 
-8.3753818474270292e-01 -8.3268013595621138e-01 -8.9482424624370793e-01 -8.2123401121857387e-01 -8.8585521914625465e-01 -9.5579488190983342e-01 
 3.0241777519861684e-01  3.0420612082034487e-01  3.0195603773917928e-01  3.0417662258540867e-01  3.0241496328676648e-01  2.9895453538033645e-01 
 2.6261234844460135e-01  2.4960030631871644e-01  2.5976497548633920e-01  2.3471471609090971e-01  2.4178343926826643e-01  2.5554477974498913e-01 
-1.1735334570707634e-01 -8.2612961282720596e-02 -7.7575375899950241e-02 -3.9742929192973495e-02 -4.3866389112444185e-02 -4.2666355272760637e-02 
-4.3593649972069021e-02 -7.1987875510658036e-02 -8.2076069279289843e-02 -1.0105376800194259e-01 -1.1485507087230086e-01 -1.2717680148724309e-01 
-1.0883735628364182e+00 -1.1452028251529778e+00 -1.0615681211907375e+00 -1.2027083795656508e+00 -1.1141517166234221e+00 -1.0314841022352816e+00 
 3.0241776554231437e-01  3.0195602486013512e-01  2.9954333729491334e-01  2.9895452219343577e-01  2.9848539053496348e-01  2.9548898736036766e-01 
 1.2066616662992694e-01  1.4202033587960425e-01  1.1940449612695435e-01  1.6010728977999028e-01  1.4034593373203358e-01  1.1724200615419178e-01 
-2.7416769792747153e-01 -2.9478160531609970e-01 -2.6167188370407440e-01 -3.1313034003958751e-01 -2.8100416105537895e-01 -2.4630387131777420e-01 
-9.2465258214249370e-03 -4.1498779440601298e-02 -1.9689376353878060e-02 -7.3400560117934111e-02 -5.0773369947979208e-02 -2.6094143477535137e-02 
-6.6742263052846362e-01 -6.7561004832635163e-01 -6.1041763378863079e-01 -6.7834632068581813e-01 -6.2081776762700158e-01 -5.6541150690291631e-01 
-4.0168741086105098e-01 -4.0134792405381109e-01 -4.2316668372032651e-01 -3.9880550660166880e-01 -4.2515377536431903e-01 -4.4636545506282488e-01 
-3.1484262404822489e-03 -5.8201196080720262e-03 -9.6457857243209752e-03 -8.1229659412407808e-03 -1.5014176303087006e-02 -2.1408192712551344e-02 
-3.9105760690695196e-01 -3.9600806315365394e-01 -4.0911114836243478e-01 -4.0050122585677178e-01 -4.1606158477101401e-01 -4.2914961322442191e-01 
-9.4352045925620617e-02 -6.0950054189091600e-02 -6.8569770536267297e-02 -3.2443494978017184e-02 -3.9983628515029367e-02 -4.3982748367007440e-02 
 8.3861309723723756e-02  6.5597013901839987e-02  7.3912917113914234e-02  4.8974492918410766e-02  5.6010814776320188e-02  6.2977392813176658e-02 
 1.4170749401363729e-02 -9.1090034836731925e-05  1.2203079591398712e-02 -1.7852784189063935e-02 -5.6666620576873144e-03  8.8633420034054944e-03 
-1.4614834101630199e+00 -1.4500807559209390e+00 -1.3696324322551869e+00 -1.4350009379382505e+00 -1.3590357149686136e+00 -1.2834624360682023e+00 
-1.5495465587286856e-02 -3.9528836449770392e-02 -2.5590357453343288e-02 -7.2601661893422986e-02 -5.5744822722140479e-02 -3.8711958299938454e-02 
 3.0895088207227028e-02 -1.5743757176610858e-02  1.1010405736550294e-02 -5.8545833245634810e-02 -3.8557576302079226e-02 -6.8706516589975841e-03 
 1.6797755188894417e-01  2.1559955393626593e-01  1.5595743907437432e-01  2.5797126252019381e-01  1.9817253009683991e-01  1.3961805275883660e-01 
 2.5987877816431876e-01  2.4808781167921556e-01  2.4900320378780322e-01  2.3498360519420283e-01  2.3624700136771198e-01  2.3716931879000611e-01 
-3.4173725697013307e-01 -3.1031991868820336e-01 -2.8267849857934463e-01 -2.8093012307907128e-01 -2.5530853859286506e-01 -2.2942444828542954e-01 
 7.0994964256382576e-02  5.8328269476090294e-02  3.3028202817913480e-02  3.6073016381963072e-02  2.3357130964118910e-02  1.0479608415387864e-02 
-1.4614834083017174e+00 -1.4111961030466915e+00 -1.5269178811455539e+00 -1.3573914960247162e+00 -1.4711003021535523e+00 -1.5933973758350171e+00 
-2.9244982493165695e-02 -6.7351450920811488e-03 -5.6138877804932007e-02  1.5212743438862765e-02 -3.2777007597813240e-02 -8.6639509494078240e-02 
-3.8745790867516577e-01 -3.9237158890782625e-01 -4.1115807908229030e-01 -4.0075574126328206e-01 -4.2303442609992614e-01 -4.3742403273423563e-01 
 1.1272651974353824e-01  1.2816130440559245e-01  1.3727259675852141e-01  1.4253591893295522e-01  1.5176329016824069e-01  1.5821413999048933e-01 
 2.6053444335629428e-01  1.5538344355785458e-01  2.4322748763632479e-01  6.3746452640147319e-02  1.3756007799149678e-01  2.2202877832635187e-01 
 8.8690364758354873e-02  4.0804633888973305e-02  1.0123440931880118e-01 -6.8700924922737256e-03  4.8468928067940606e-02  1.2157573966372681e-01 
-5.3542829098363096e-02 -7.0061832216203490e-02 -1.7029594862049822e-02 -8.6639587604503063e-02 -3.2777058806348860e-02  1.5212632780487650e-02 
 2.6931550529536707e-01  2.6611278419170403e-01  2.5301083323326751e-01  2.6621816299900891e-01  2.4364451211627652e-01  2.2569555899292038e-01 
-1.5777577406887648e+00 -1.4834897527775059e+00 -1.5421918085117119e+00 -1.3948045421728776e+00 -1.4509244771709404e+00 -1.5039383391797843e+00 
 2.7611586101108093e-01  2.9146200804641997e-01  2.7297507808187177e-01  2.9727435524469498e-01  2.8117174797867239e-01  2.7080570757616895e-01 
 2.4915310609002503e-01  2.6678265461842737e-01  2.5798746133168887e-01  2.8537417124572151e-01  2.7477294231495381e-01  2.6538667062343879e-01 
 1.8907100850487443e-01  1.7445132902957788e-01  1.6756644846504060e-01  1.5821407127630527e-01  1.5176326060109560e-01  1.4253587886545674e-01 
-2.4050320223582314e-01 -2.7625009835690401e-01 -2.2701897649108169e-01 -3.1229158342301994e-01 -2.6948754324367064e-01 -2.1532890187680018e-01 
-1.8518566795212063e-01 -1.7288905349805742e-01 -2.1827595819668566e-01 -1.6167775522789968e-01 -2.0438248142264576e-01 -2.5068733973815893e-01 
-1.4985110523080933e+00 -1.5663676034217282e+00 -1.4639203216709682e+00 -1.6357641627155770e+00 -1.5273906621725317e+00 -1.4251635594703098e+00 
 3.8433206664547909e-01  3.2817300583614278e-01  3.9213560052241220e-01  2.7727113431247508e-01  3.2961258118888492e-01  3.9710460243044537e-01 
-2.2841940074815900e-01 -2.1082584880953689e-01 -2.0102729361914790e-01 -1.8900276011169875e-01 -1.8450041506232509e-01 -1.7234843437449920e-01 
 2.5987878092408340e-01  2.4900319182220690e-01  2.6103264419483119e-01  2.3716931786508647e-01  2.5028849536631764e-01  2.6177184857438690e-01 
 2.3048638389945134e-01  2.4505419156633321e-01  1.9487911834117994e-01  2.5887018071995327e-01  2.1616179148831235e-01  1.5845920122146229e-01 
-1.0930954345217130e-03 -3.7371823266146103e-03 -8.3493032112891090e-04 -8.5447438146667026e-03 -2.8272643039514191e-03  1.6677492506078639e-04 
 2.9664042289542910e-03  6.0206687406268054e-03  2.1835034126652772e-03  9.3013361852121723e-03  3.6707057770984986e-03  5.3230040346774476e-04 
 3.0197083448400314e-01  2.5800141783634184e-01  2.9888996255334449e-01  2.1727019630746558e-01  2.5951057765990299e-01  2.9503039187277380e-01 
-3.9105759851847494e-01 -4.0431449656275820e-01 -3.7675621121860575e-01 -4.1477255240151278e-01 -3.8900635028792235e-01 -3.6411183452951673e-01 
 1.0893139014252465e-01  8.5625702462607325e-02  9.6456004156960248e-02  6.4409256025430045e-02  7.4278666610204741e-02  8.3565219464823703e-02 
-7.8138343683685746e-02 -4.2849657699286961e-02 -5.5396607930895826e-02 -1.7744609728120239e-02 -2.6960789363305863e-02 -3.0847734233338753e-02 
 8.6377352674830599e-02  8.2883322975419921e-02  5.0240320905657089e-02  7.0997115353561083e-02  5.1450209671331501e-02  1.9932048474177178e-02 
-1.1443848300617072e-01 -1.5069421375726996e-01 -1.0282342884043749e-01 -1.7102338505329068e-01 -1.3214982666174455e-01 -8.7397392919887240e-02 
-1.6801160918164457e-01 -1.9579517886972508e-01 -1.4101402212836084e-01 -2.1309952175479382e-01 -1.6907912324173061e-01 -1.1443793488737242e-01 
 1.1234256890172813e-01  3.3380031902778842e-02  7.9644608206638268e-02 -1.1631514549021591e-05  1.4750907517300573e-02  4.8823334376507710e-02 
-8.5190920187028429e-01 -8.6352501454018527e-01 -9.2235675802978878e-01 -8.6980658783655529e-01 -9.3302661362111639e-01 -9.9993120056466178e-01 
-3.8984016733180699e-01 -3.7884601715604926e-01 -4.0148272895856429e-01 -3.6411196953347330e-01 -3.8900633008156893e-01 -4.1477270521978316e-01 
 1.3221346586336832e-01  1.3975884216368714e-01  1.1838863001679377e-01  1.4506543990528037e-01  1.2606417756547048e-01  1.0471042822348939e-01 
-7.1133534545863741e-02 -2.2222375186931025e-02  5.6491380783274901e-03  3.2099536509677493e-02  6.3854406881994730e-02  9.2070721555093410e-02 
-2.6682641858424155e-01 -2.4659557893606904e-01 -2.3645564667260047e-01 -2.2504926657444904e-01 -2.1824112537690127e-01 -2.0571857192780540e-01 
-3.0133283638272616e-02 -5.3317354240577111e-02 -2.6118868634101011e-02 -7.3661523992808967e-02 -4.1120611851485009e-02 -1.7924643435013654e-02 
 1.8817076595763617e-03 -1.9445694084486574e-03 -3.0241501828505266e-03 -3.1492906777679901e-03 -6.0350911791145368e-03 -9.3626568457825243e-03 
-1.7478611059663826e-01 -2.4406883654710260e-01 -2.2109043229307740e-01 -3.0279870096276207e-01 -2.7822132158717544e-01 -2.5927737993479799e-01 
-6.4424119768246391e-01 -7.1436261187596961e-01 -6.8170422128436059e-01 -7.9124780267677497e-01 -7.5457308728653172e-01 -7.1616279395387683e-01 
-5.0375435269420277e-01 -4.8987261664571236e-01 -4.8236152852442288e-01 -4.7672901385629474e-01 -4.7047209405696339e-01 -4.5998310383587698e-01 
-8.0366563097866806e-01 -8.3763068408863217e-01 -8.7853495316101360e-01 -8.6451960043308285e-01 -9.1136449111941331e-01 -9.6164193977930967e-01 
 2.6698252951136237e-01  2.7702897399259002e-01  2.5755278357484596e-01  2.8537420665997792e-01  2.6678266328223477e-01  2.4915314708426725e-01 
 7.6748217578713626e-02  7.3221926195708859e-02  3.9912643429274801e-02  6.2785112829743112e-02  3.5283581642548759e-02  1.5496319735267550e-02 
-4.8817399793587146e-01 -5.2965030454372941e-01 -4.6832289468960853e-01 -5.6541145156825456e-01 -5.0705052574689546e-01 -4.5207475830752658e-01 
-2.5892365433030040e-01 -2.3179652601712225e-01 -2.4282757603149965e-01 -2.0571816483278613e-01 -2.1649261739051934e-01 -2.2473856286188543e-01 
-2.8381434770541147e-01 -2.6554553922224478e-01 -3.2314813230383144e-01 -2.4590707445354112e-01 -3.0430191006355706e-01 -3.6739229379676674e-01 
 2.6628613535379025e-01  3.2370490438073685e-01  3.2868104857455066e-01  3.8312925948976334e-01  3.9491508852948620e-01  4.0480552686996812e-01 
-1.8743100941324342e-01 -1.6054625885598720e-01 -1.6766385879851053e-01 -1.3299939102663322e-01 -1.4150507104724097e-01 -1.4186052549585482e-01 
-1.0247417437578246e+00 -9.3356846424266082e-01 -1.0215818576040199e+00 -8.5015582031382952e-01 -9.3084726718815525e-01 -1.0156016337221727e+00 
 3.8193277621974031e-01  3.7601110115854847e-01  4.1101623569340706e-01  3.6760958652167963e-01  4.0368554536996470e-01  4.4522245819502632e-01 
-1.4364723133727924e+00 -1.5001424334977576e+00 -1.3912897428765234e+00 -1.5653639618443320e+00 -1.4505771292312966e+00 -1.3438721805284519e+00 
-2.1863293684900623e-01 -2.3397421309209523e-01 -1.9036416220505345e-01 -2.5068711431188934e-01 -2.0438238282629143e-01 -1.6167754406723620e-01 
-1.0883735684349221e+00 -1.0615680885073988e+00 -9.9206497926066317e-01 -1.0314840946613759e+00 -9.6629897952281674e-01 -9.0325591020745821e-01 
-8.9070807411834096e-01 -9.1660877080559233e-01 -8.4236479876681780e-01 -9.3628864193526351e-01 -8.6233512159067360e-01 -7.9594501840715848e-01 
 3.9189207040597857e-01  3.3312071797732251e-01  3.9256535734070797e-01  2.7762553333358414e-01  3.2717149217138153e-01  3.8889890575559144e-01 
-1.8743068437139551e-01 -1.6766367386378980e-01 -2.0055956445458201e-01 -1.4185998508063677e-01 -1.7466009773592220e-01 -2.0682497417386903e-01 
 3.1907214669678069e-01  3.1186170227416077e-01  3.7571594205984504e-01  3.0123024019722905e-01  3.6116268939885032e-01  4.3071269017826497e-01 
-9.3643701710355165e-01 -8.7521065613180316e-01 -9.4922876056023298e-01 -8.1992756291590119e-01 -8.8617452913548500e-01 -9.5813861100302211e-01 
-1.2014085985718025e-02 -3.6839665085104450e-03 -1.5039686979127069e-02  1.7824899638984341e-08 -4.2521058947784778e-03 -1.7981511429045915e-02 
-7.2187140216482582e-01 -6.7275553797486087e-01 -6.7886258609624595e-01 -6.2463511322588061e-01 -6.3758047935607176e-01 -6.4070294643097370e-01 
-1.0145465627973675e+00 -9.7620313671403680e-01 -8.9370896545008571e-01 -9.3695971593173044e-01 -8.5979251216573127e-01 -7.8592964265482901e-01 
-3.5983152396405271e-01 -3.7975732297483977e-01 -3.6006054327554787e-01 -4.0069857320889551e-01 -3.8104580370702429e-01 -3.5830909057768245e-01 
-9.5813860174642584e-01 -8.8617452807121266e-01 -9.0363758165344055e-01 -8.1992755575583132e-01 -8.3931305985661686e-01 -8.5190921365879579e-01 
-3.5983138734011910e-01 -3.6006067529250385e-01 -3.3423827737340378e-01 -3.5830903031736200e-01 -3.3114825028732975e-01 -3.0513042555157738e-01 
 2.0560052086322211e-01  2.2767629074541565e-01  2.3534675618989723e-01  2.5642603563170274e-01  2.5778726029422416e-01  2.5994052156369862e-01 
-1.3571845814509027e+00 -1.3619353389986006e+00 -1.2678447099383490e+00 -1.3629765376542762e+00 -1.2712088774253276e+00 -1.1849915540340270e+00 
-9.2465202751315229e-03 -1.9689374198032236e-02  2.3696618153037613e-02 -2.6094366667460331e-02  1.1156087438665531e-02  5.7057125615970761e-02 
 5.7057007644810163e-02  5.0864729783102226e-02  4.0653349884111477e-02  4.5092562033085648e-02  3.5773382272755533e-02  2.6468863746588855e-02 
 8.8690910567746264e-02  5.5527695230599354e-02  4.0805058884008816e-02  3.0895108383439049e-02  1.1009841206944397e-02 -6.8703701393572070e-03 
-1.1959971272551438e-01 -1.8648471405188602e-01 -1.6723336208113065e-01 -2.4050318789662020e-01 -2.2701892173638077e-01 -2.1532886307424595e-01 
 2.7080544048598915e-01  2.7458186246736122e-01  2.7029827293793190e-01  2.6817581092364784e-01  2.6730414361832622e-01  2.7085940754624516e-01 
-8.8340793850051924e-01 -8.4171093310362011e-01 -9.2490581043873521e-01 -8.0366563378106837e-01 -8.7853495468895915e-01 -9.6164193800054554e-01 
 1.0471044347456032e-01  1.2606417085375704e-01  1.0585826104317622e-01  1.4506539089408058e-01  1.2500362379042468e-01  1.0532363682288381e-01 
-1.6998543371692826e-01 -1.7944945028382098e-01 -1.4895532238473042e-01 -1.8289192620473912e-01 -1.5424067489429724e-01 -1.2702592536090185e-01 
 2.7398665090755869e-01  2.7070570104719544e-01  2.5913854134714004e-01  2.6687274488335438e-01  2.5003547247216845e-01  2.3391332058724479e-01 