<VTKFile type="UnstructuredGrid" version="1.0" byte_order="LittleEndian" header_type="UInt64">
<UnstructuredGrid>
<Piece NumberOfPoints="7326" NumberOfCells="4884">
<PointData>
<DataArray type="Float64" Name="σy" NumberOfComponents="1" format="ascii">
 2.8537421204516583e-01  2.8857360607261245e-01  2.7477295766803639e-01  2.8999965650921261e-01  2.7776754342264748e-01  2.6538666743232370e-01 
 1.8437396864130065e-01  2.0115359387941756e-01  1.8464396338998104e-01  2.1643723460008837e-01  2.0123847898421271e-01  1.8345456234494301e-01 
 1.6245244164274344e-01  1.4967941724439185e-01  1.7305766698830385e-01  1.3914923123364017e-01  1.6220427631144693e-01  1.8444072268874764e-01 
-9.2070859703340266e-02 -6.8040370639866926e-02 -1.0805275176547829e-01 -4.3419597864862700e-02 -8.2772060326258043e-02 -1.2664522997379246e-01 
-1.3442660039437854e-01 -1.1387713611999410e-01 -1.4901209627062892e-01 -9.2070836014966601e-02 -1.2736509127539047e-01 -1.6523383450234003e-01 
 1.1020014725844300e-01  1.1053864784186435e-01  1.3063827160692068e-01  1.0979052773445729e-01  1.2938342608776171e-01  1.4842495214526957e-01 
 1.0906077282723466e-01  1.2633124789314068e-01  1.2339357781017443e-01  1.4430916195298585e-01  1.4091462650163392e-01  1.3724952203752511e-01 
-4.7850004142738262e-01 -5.0479473828474164e-01 -4.9229077658805809e-01 -5.3599806988780652e-01 -5.2221497396646077e-01 -5.0468456141966944e-01 
 1.4242254048826572e-01  1.3097562637915228e-01  1.1593860867786998e-01  1.1819147414147163e-01  1.0299768900410436e-01  8.5854733427747160e-02 
 5.7057006862228123e-02  5.5327425591907280e-02  7.1174418046647231e-02  5.3819344629716756e-02  6.9949865291299262e-02  8.6759710912989063e-02 
-2.4162700011620528e-01 -2.1543713300409240e-01 -2.1602618614709246e-01 -1.8869801333723876e-01 -1.9141070272407085e-01 -1.9028410157919634e-01 
 2.6142366963349828e-01  2.7981956731263019e-01  2.6413771298796962e-01  2.8762585810110985e-01  2.7803521114561808e-01  2.6811308973454384e-01 
-2.8107748200325894e-01 -2.8488559564663574e-01 -3.0730609385400776e-01 -2.8648928847706967e-01 -3.0883232183440995e-01 -3.3103749542420186e-01 
-9.5479431102778178e-01 -9.2873217306034861e-01 -1.0152427483879196e+00 -8.9999198280204817e-01 -9.8535725897199800e-01 -1.0777836237866611e+00 
 2.4314481327576895e-01  2.3456439411643526e-01  2.1816657185285651e-01  2.2649095817009809e-01  2.1155112969568574e-01  1.9494725438189925e-01 
 2.5604191837909990e-01  2.5090811728124529e-01  2.7170939321974419e-01  2.4596797878884658e-01  2.7150870643939001e-01  2.8603655934869776e-01 
-3.7510720127005903e-01 -3.4985721674250653e-01 -3.9243915772400256e-01 -3.2336092794658117e-01 -3.6548684367509088e-01 -4.1153534808494679e-01 
 3.4460438868045973e-01  3.3199013141452510e-01  3.2210651224529235e-01  3.1791202492474047e-01  3.1078328883206641e-01  3.0327589947718947e-01 
 1.4938396630371750e-01  1.4223525343411958e-01  1.3284284438470462e-01  1.3380632675473253e-01  1.2519984594147224e-01  1.1614058045209244e-01 
-4.4052350445087135e-01 -4.8200560384390584e-01 -4.3426156883610589e-01 -5.2845095494697625e-01 -4.7672060519477644e-01 -4.2549502721914267e-01 
 2.3471483821568703e-01  2.3987506462628386e-01  2.2387226136102129e-01  2.4738157371275515e-01  2.3291458683457172e-01  2.1564897436509595e-01 
-1.6294533691416158e+00 -1.7090563524811133e+00 -1.7352162800089965e+00 -1.7904382729272263e+00 -1.8207405579289393e+00 -1.8481040698560876e+00 
 1.5727098926605429e-01  1.4505200302411547e-01  1.6750452128075616e-01  1.3340537307602335e-01  1.5476308406668537e-01  1.7644648004622190e-01 
 2.4738157208481523e-01  2.5562459616994521e-01  2.4292539185176143e-01  2.6419220434095619e-01  2.5274884685170734e-01  2.3880853059797502e-01 
-1.5653639206199406e+00 -1.6673189743564349e+00 -1.6459582175323588e+00 -1.7751556412011260e+00 -1.7536994290825396e+00 -1.7295397116509330e+00 
 2.9098242324527790e-01  2.9597079096139178e-01  2.9304953901275838e-01  3.0002254261132544e-01  2.9794793631627481e-01  2.9393140050658850e-01 
 2.9548898949497199e-01  2.9027755019985679e-01  2.9519814673800898e-01  2.8308019941356005e-01  2.8885612645501790e-01  2.9366317680686138e-01 
-1.5933973298691169e+00 -1.6824635449718250e+00 -1.6984958098536511e+00 -1.7751555728482509e+00 -1.7938566760644810e+00 -1.8097576620422238e+00 
-1.9610058635880598e-01 -2.2131653736257717e-01 -1.9329326153935822e-01 -2.4796739271216925e-01 -2.1842010306089196e-01 -1.8874207939210497e-01 
 1.2568564275689351e-01  1.4336617812299438e-01  1.3062234010068052e-01  1.5992987270377007e-01  1.4836832467131483e-01  1.3482509702560158e-01 
-1.8735574606028116e-01 -1.6710832149088717e-01 -2.0312637408978074e-01 -1.4548864135502373e-01 -1.7960496615839350e-01 -2.1399965639994001e-01 
 1.7327965965429937e-01  1.6787307989417380e-01  1.5508996556413851e-01  1.6228045177244652e-01  1.5010067280872877e-01  1.3724950336968572e-01 
-1.2717672656735365e-01 -1.1485489334719926e-01 -1.5852995675777515e-01 -1.0105369038293807e-01 -1.4294553690383904e-01 -1.8735600106785122e-01 
 2.6317705735019181e-01  2.4246162419872150e-01  2.3025689227789933e-01  2.1300719104354504e-01  2.0395118270033621e-01  2.0003630668444689e-01 
 2.4580604816239259e-02  3.3953985104976540e-02  3.8967913030748869e-02  4.3520745734875230e-02  4.9401027773774364e-02  5.5659755610613759e-02 
 1.8019187061788011e-01  1.8039508284161618e-01  1.6686938989158556e-01  1.7963570227695641e-01  1.6681650095302225e-01  1.5286557128437001e-01 
 1.1086016892890624e-01  1.2260976924795899e-01  1.3361887807357209e-01  1.3340530184868768e-01  1.4505192176777701e-01  1.5727092887269081e-01 
 2.5151682840448925e-01  2.4326927485179012e-01  2.4355756166329573e-01  2.3467172125688532e-01  2.3537064202961439e-01  2.3464891686671327e-01 
-1.7896135179522588e-01 -1.5099480529439319e-01 -2.0488112466016314e-01 -1.2386028064927795e-01 -1.7503655142301722e-01 -2.3221674598926112e-01 
-4.7879282457066102e-01 -5.3845031490262774e-01 -4.9482617838350496e-01 -6.0242932394327775e-01 -5.5300948196704769e-01 -5.0821538157225110e-01 
 2.3498361523604325e-01  2.3300396668713180e-01  2.2176756446860529e-01  2.3028654726153433e-01  2.1947161654046723e-01  2.0769580054289943e-01 
-1.7425940214469542e+00 -1.8420938314266750e+00 -1.8330025535902370e+00 -1.9466084441452736e+00 -1.9382834965062046e+00 -1.9266643484223129e+00 
-1.6299075207144778e+00 -1.7182223691772383e+00 -1.7288435965055675e+00 -1.8097575919449453e+00 -1.8228201264828781e+00 -1.8330127075391882e+00 
 2.6779690850404025e-01  2.7287076641884417e-01  2.7851423515571216e-01  2.7649125878923830e-01  2.8259797066694736e-01  2.8737714108897700e-01 
 1.9956775083988268e-01  2.0880925775630005e-01  2.1127576917704610e-01  2.1678594807265231e-01  2.1984251271099756e-01  2.2189386647866266e-01 
 1.9494725193348941e-01  2.1155109512881304e-01  1.8932991736875912e-01  2.2649096214753806e-01  2.0461227358128403e-01  1.8377543087138290e-01 
-7.9254439310357139e-02 -7.9453011105887011e-02 -1.0271823360790346e-01 -7.6300002665507780e-02 -1.0008148298377466e-01 -1.2702585946377387e-01 
 8.2108060785936174e-02  8.4342932481160343e-02  9.9392464906240485e-02  8.6759695202118459e-02  1.0223375776026547e-01  1.1773241791856784e-01 
 2.9366317946652870e-01  2.8641643304616438e-01  2.9108037012776206e-01  2.7726849801216236e-01  2.8294263962868421e-01  2.8737713656776442e-01 
-1.0885817760435365e-01 -1.1965079676041417e-01 -1.4012074981533948e-01 -1.2917955084831870e-01 -1.4985049157117544e-01 -1.7237192468370371e-01 
-1.2770079030353909e+00 -1.3357458314930031e+00 -1.2417039063773960e+00 -1.3948045140023158e+00 -1.2954928240536843e+00 -1.2027084004325830e+00 
-5.2022721095855384e-01 -5.6414689810003249e-01 -4.9460469829531989e-01 -6.1055522751309255e-01 -5.3573311407579882e-01 -4.6741246419944504e-01 
 2.7963798791365568e-01  2.8545818964797759e-01  2.7985533473592078e-01  2.9032891500924396e-01  2.8530517734879296e-01  2.7823833858854308e-01 
 1.6228043725849342e-01  1.5618134274698475e-01  1.4536469384295975e-01  1.4938396812847285e-01  1.3921237232808353e-01  1.2849442023226768e-01 
 2.7646027960773334e-01  2.7183970645347971e-01  2.7627762531369587e-01  2.6811294372509048e-01  2.7581768690403929e-01  2.7398683294480275e-01 
 1.3169363255020783e-01  1.2125424834563300e-01  1.4518827844584034e-01  1.1086016304754455e-01  1.3361880064183193e-01  1.5727090270516458e-01 
-2.0902998408779541e-01 -1.7885591124049574e-01 -2.2485939982413566e-01 -1.4971572810063358e-01 -1.9307386673378141e-01 -2.4135164760700917e-01 
 2.5852114614233229e-01  2.4999906189042567e-01  2.5869258554057190e-01  2.4064143538626059e-01  2.5235863797549168e-01  2.6124039907959995e-01 
 5.2438415614317863e-02  3.8770872744555103e-02  3.1805953133128576e-02  2.6155426626572990e-02  1.8555037008654587e-02  9.2963880576938940e-03 
 2.5346257245875758e-01  2.4847923963887864e-01  2.6099150131081050e-01  2.4313400507130523e-01  2.5707543729084148e-01  2.6877190019863301e-01 
 3.7913306738305029e-02  5.5022291691915172e-02  2.5331109443532278e-02  8.5070815683212647e-02  4.1603953419445387e-02  1.3794363094013273e-02 
 8.0177232185270619e-02  1.0111250542920396e-01  8.6897100022834420e-02  1.2329090330154356e-01  1.0889361981159268e-01  9.4481221236603297e-02 
-2.5413146567284761e-01 -2.5179074175235650e-01 -2.0009883852968502e-01 -2.5338944043937450e-01 -1.9471281587661526e-01 -1.3722333241014156e-01 
 2.4064145333691184e-01  2.3198623041180130e-01  2.4645963050776074e-01  2.2359068328546619e-01  2.3979117641470868e-01  2.5346256778852772e-01 
 2.6877189984724792e-01  2.6569856256536589e-01  2.7616876335831264e-01  2.6187496075096700e-01  2.7351414750891001e-01  2.8308019945069440e-01 
-3.6323748582659044e-03 -7.5482322897217433e-03 -1.4498032518181332e-02 -9.3626338250238188e-03 -1.6726048890453531e-02 -2.6650323543048304e-02 
-1.4887551753289957e-01 -1.8090667910615474e-01 -1.3709014749825785e-01 -2.1551942187213710e-01 -1.6811624587444429e-01 -1.2545327555399727e-01 
 2.1684192757204984e-01  2.3275791312012886e-01  2.2542494282235004e-01  2.4726579815303001e-01  2.4074411967772719e-01  2.3272716664512505e-01 
-4.1600025834174081e-01 -4.8637376047462838e-01 -4.4977409238082733e-01 -5.6412988753460447e-01 -5.2358858701139532e-01 -4.8367063666567744e-01 
-1.1053210401467430e-01 -9.9096167492248949e-02 -1.2605002623900030e-01 -8.5100856174529088e-02 -1.1156365447263095e-01 -1.4086509506033840e-01 
 1.6432062965489894e-01  1.5257243170347429e-01  1.6976219185805766e-01  1.4064132476439872e-01  1.5766815920166055e-01  1.7438846302917399e-01 
 2.6512516293920457e-01  2.6616683812408171e-01  2.6297007198706568e-01  2.6777804184387771e-01  2.6190108748158430e-01  2.5635457959364677e-01 
 6.8669032843655678e-02  1.0040967765131778e-01  8.9749238421026944e-02  1.2825079859180066e-01  1.1946785180962677e-01  1.0903937363167376e-01 
 3.2628105293952447e-01  3.0894948048766685e-01  3.4015825336871774e-01  2.8408558988820320e-01  3.2013221922445745e-01  3.4599075335100837e-01 
 8.9761046212294318e-02  1.0935782741910045e-01  1.3827318451357076e-01  1.2496548717132952e-01  1.5550130357313838e-01  1.8661889103616047e-01 
 9.0551293913440925e-02  8.5077649773511260e-02  6.6316756436543875e-02  7.8497356039443023e-02  5.9606006081713105e-02  3.8667763212110046e-02 
-1.9028400656512354e-01 -1.9141074567275290e-01 -1.6574654874157602e-01 -1.8869791266388797e-01 -1.6461643893853034e-01 -1.4130263971379309e-01 
 4.4652662521214803e-02  3.9605854553907520e-02  5.4581545665340937e-02  3.4543290480650184e-02  4.8384961808046079e-02  6.4409251298798098e-02 
 1.4064131179940023e-01  1.2929562279589776e-01  1.4547651687249882e-01  1.1723293575819889e-01  1.3333288765184592e-01  1.4939378516503365e-01 
 1.0893143429058920e-01  1.2987343346381794e-01  1.1606730556356429e-01  1.5124922491421966e-01  1.3747437175666025e-01  1.2329086372259065e-01 
 9.6498042333682477e-02  8.0874758693250129e-02  8.6118562895437401e-02  6.5944716470334133e-02  7.1362128601280689e-02  7.5446364454732184e-02 
-2.0786240559079949e-01 -2.2818479498084074e-01 -1.7721977469074962e-01 -2.5046262028770805e-01 -2.0172645082290336e-01 -1.4222954761550533e-01 
 5.1150333605140666e-02  7.1751274147217006e-02  4.5463935802041409e-02  9.0551285956629257e-02  6.6316734771855096e-02  3.8667755802756741e-02 
 1.1211543953899306e-01  1.2847968931960285e-01  1.1076531391957205e-01  1.4430919408746967e-01  1.2633126481811729e-01  1.0906078808077435e-01 
 9.0124397774309820e-02  7.5290272208553125e-02  7.2198434010283655e-02  6.1117979313549183e-02  5.7520898756402962e-02  5.2438450259353953e-02 
-9.6558846575274457e-02 -1.3238895975881232e-01 -1.0344962885721333e-01 -1.7140549027867638e-01 -1.4080982066534348e-01 -1.0863961926111820e-01 
 3.1791202436354482e-01  2.9998457963955999e-01  3.1078332429454908e-01  2.8452954284893694e-01  2.9463900544727223e-01  3.0327587673664691e-01 
 2.5595973624037482e-01  2.4657234889614571e-01  2.5205033175059621e-01  2.3706788529203981e-01  2.4287554380259130e-01  2.4725005317301865e-01 
 1.9653093246487802e-01  2.1397446155633693e-01  2.0721213738690286e-01  2.3028655065619025e-01  2.2424999664928938e-01  2.1684192932883772e-01 
 1.2799481514910821e-01  1.0409174595838473e-01  1.4115291858250414e-01  7.0973511492150435e-02  1.1109827833394903e-01  1.5597460548367764e-01 
-1.6496699517487492e+00 -1.7449367095431609e+00 -1.6537484832690674e+00 -1.8446966520924990e+00 -1.7469968980389587e+00 -1.6533795599605972e+00 
-1.6126908844193124e+00 -1.7264320935656137e+00 -1.6997999237641859e+00 -1.8481040660273007e+00 -1.8207405494047360e+00 -1.7904383022797752e+00 
 3.1907221309078843e-01  2.5053660576405989e-01  2.5331871225490732e-01  1.8542722840461240e-01  1.9300552007135430e-01  1.9744878543611039e-01 
 8.2108066583249054e-02  9.9392464898989966e-02  9.5280168176679420e-02  1.1773243438187198e-01  1.1317182903728727e-01  1.0822875965744796e-01 
-4.4229829704566720e-01 -5.0076364386819994e-01 -4.6156196337088357e-01 -5.6396688067537981e-01 -5.1965222355178198e-01 -4.7879284861042554e-01 
-7.5208309139610519e-02 -1.0848163684024739e-01 -8.6164934034442142e-02 -1.4666912712091906e-01 -1.2265949547838272e-01 -9.6558834930486670e-02 
 1.7390197572975274e-02  1.2178047627243654e-02 -1.1407405598770428e-02  5.5940998152752466e-03 -1.8927975699799107e-02 -4.3419703391044673e-02 
-8.8929287122824308e-01 -9.5690275330292840e-01 -8.8423483796607738e-01 -1.0262319996009863e+00 -9.4660376134719115e-01 -8.7380750952706532e-01 
 2.9257406988515172e-01  2.9714490460182252e-01  2.9288288468901974e-01  3.0002254078491025e-01  2.9597078625677681e-01  2.9098242314081368e-01 
-1.0863959830564811e-01 -1.4381375614216740e-01 -1.0893733821522447e-01 -1.8037753382172017e-01 -1.4364423325426515e-01 -1.0648873371444034e-01 
-3.2389978895619914e-01 -3.3870319801611182e-01 -3.3585537320390318e-01 -3.5100902894195490e-01 -3.5121375488523554e-01 -3.4305685016956855e-01 
 6.6330759845815671e-02  6.1890002855917156e-02  8.9492641353671090e-02  5.7189391777017450e-02  8.3677192939381653e-02  1.0979054453097999e-01 
-4.7343430297380938e-02 -6.5052393511519230e-02 -8.1720650591092930e-02 -8.2256606366427662e-02 -9.9230169589038172e-02 -1.1852562159227711e-01 
 1.4430917460521697e-01  1.5920747466058507e-01  1.4091461429247795e-01  1.7327968197563465e-01  1.5508996490677157e-01  1.3724951583469103e-01 
 1.0822871380084330e-01  1.2179712134385053e-01  1.0338565931096393e-01  1.3494862225371176e-01  1.1585510007951355e-01  9.7331269208016769e-02 
-1.3109789437065308e-01 -1.0692892016565096e-01 -1.5410971322823500e-01 -8.3233378106611716e-02 -1.2852610616583310e-01 -1.7896135792548798e-01 
-1.6496699268528221e+00 -1.7395772209219826e+00 -1.7449367168226326e+00 -1.8330126673588460e+00 -1.8403107146113906e+00 -1.8446965951909378e+00 
 1.7265948615064558e-01  1.9051879499805469e-01  1.8500772594345669e-01  2.0769579942058025e-01  2.0263621812034885e-01  1.9653094211681124e-01 
 2.9548898863442685e-01  2.9042522840992052e-01  2.9027754288594054e-01  2.8473122963216208e-01  2.8447544229928395e-01  2.8308019836176240e-01 
-1.5194826781594808e+00 -1.5953460801564012e+00 -1.6211949169030448e+00 -1.6733482926847667e+00 -1.7027346333094362e+00 -1.7295397994288646e+00 
-5.6838673357332906e-02 -3.0506053417198413e-02 -6.3853216058336534e-02 -5.6860264816255522e-03 -3.6800615415380808e-02 -7.1717887203897226e-02 
 4.3520715230127967e-02  5.1673933002259705e-02  5.8850731123284719e-02  5.9301415659728303e-02  6.7401177445290006e-02  7.5690393446820547e-02 
 1.3929730092731307e-01  1.2258179471155649e-01  1.2184966627744104e-01  1.0322372215743364e-01  1.0359157173017954e-01  1.0295698783561341e-01 
-6.1315919541839493e-03 -2.7602073684462367e-02 -2.2850438802249830e-02 -5.2510378261022277e-02 -4.5254370799530562e-02 -3.8029637248422621e-02 
-4.6986728469749356e-01 -4.9631755868964550e-01 -4.4678358872871510e-01 -5.1585129902120652e-01 -4.7221464184479356e-01 -4.2890529754145623e-01 
-1.5367811657169884e-03 -1.8202031595596448e-02 -1.4052604969920928e-02 -3.8029603019945533e-02 -3.1226305681811440e-02 -2.4605181558527089e-02 
-3.2648988627255654e-01 -3.2045756289381899e-01 -3.4678575718758559e-01 -3.1183801156738800e-01 -3.4041543745034492e-01 -3.6719706743189434e-01 
 2.9950651397278444e-01  3.0022401754638794e-01  2.9664492795114589e-01  2.9923439242580263e-01  2.9678231821305628e-01  2.9261478004308267e-01 
 1.1340103270413672e-01  1.3129117957198308e-01  1.1979935691436033e-01  1.4842029787760860e-01  1.3799922902449333e-01  1.2568563834415394e-01 
-4.5179769396775843e-01 -4.3505296373850322e-01 -4.1965042991161211e-01 -4.1225796460347358e-01 -3.9680625284431209e-01 -3.8620833350608741e-01 
-8.8340795842798647e-01 -8.3238954580834279e-01 -8.4171092073857545e-01 -7.8198708526424066e-01 -7.9610695845043589e-01 -8.0366563666132818e-01 
-7.4525124551426342e-03 -3.6497426338487397e-02 -2.6895813958137834e-02 -6.8491033723548839e-02 -5.6252066139079848e-02 -4.5216608403948422e-02 
 2.6540465035452199e-01  2.5624500413804252e-01  2.5884485294156212e-01  2.4725004418612617e-01  2.5009804807414093e-01  2.5151682580399687e-01 
 7.3399320036512242e-02  5.8326231762938364e-02  5.9107115499516992e-02  4.4810869598921853e-02  4.5617832722390818e-02  4.5092519873428327e-02 
 2.8325338972002828e-01  2.8814658960649869e-01  2.8791955383142182e-01  2.9257406833094673e-01  2.9288288831543752e-01  2.9098241937842917e-01 
 5.1840024186027171e-02  6.3626874206610964e-02  5.0194793773999088e-02  7.5446388536707404e-02  6.0880260501092895e-02  4.7526628521266379e-02 
-8.1231559528031419e-03 -1.9660246102014500e-02 -1.5014239825588561e-02 -3.6786464425033902e-02 -2.8795470502729917e-02 -2.1408103528187672e-02 
 8.2994096083458799e-02  9.9474840227735020e-02  9.1041200261358202e-02  1.1614058105607776e-01  1.0835616109552985e-01  9.8865400370694967e-02 
 2.8999966913139452e-01  2.8903985291480450e-01  2.7882500432268587e-01  2.8646577583189259e-01  2.7787216360619921e-01  2.6887060941918484e-01 
-2.5448579229238655e-01 -2.8305319240270888e-01 -2.7213764758386944e-01 -3.0872327562581636e-01 -2.9875601887152570e-01 -2.8617095663341696e-01 
 3.4567319959824733e-02  3.7400417600510202e-02  4.7712720907470162e-02  3.8984293216259382e-02  5.1762476005010383e-02  6.2831029183647857e-02 
-8.2586356889778334e-02 -7.7488079068761748e-02 -6.0486147852964862e-02 -6.9348891378532646e-02 -5.3975810989764714e-02 -4.0403225922586938e-02 
 5.5659788045760106e-02  4.9401012616934331e-02  6.5853677449125333e-02  4.3520727084717041e-02  5.8850739321159071e-02  7.5690410149018228e-02 
 1.1723291487570602e-01  1.0495523436615106e-01  1.2009852748530409e-01  9.1570160152714269e-02  1.0659744420863458e-01  1.2190381218996613e-01 
-1.7452491892635855e+00 -1.8438052280116486e+00 -1.8466979292973580e+00 -1.9466084240320825e+00 -1.9516136629722620e+00 -1.9532837903123534e+00 
 9.8865394811663010e-02  1.1649330093168220e-01  1.0629734338500876e-01  1.3380633418726881e-01  1.2451073010013798e-01  1.1340103032643489e-01 
 1.3340541388211530e-01  1.2273688896601682e-01  1.4254069248623311e-01  1.1247057594999513e-01  1.3148621943209027e-01  1.5081990494592909e-01 
 6.5943924655972657e-03  8.9408733650827056e-03  1.2723648218164917e-02  1.0437794483918381e-02  1.5596094224263205e-02  2.0942948779665349e-02 
-1.6357641149707214e+00 -1.7320214235522560e+00 -1.7212163043455657e+00 -1.8330126978956738e+00 -1.8228201271658933e+00 -1.8097575927545284e+00 
 2.6777804263085991e-01  2.5974074975736344e-01  2.6190109017704677e-01  2.4738155081022539e-01  2.5173966622732363e-01  2.5635459216197415e-01 
 1.1247056086585336e-01  1.2061794354869300e-01  1.3148623904228640e-01  1.2799328284361203e-01  1.3930152822748976e-01  1.5081990666456865e-01 
 2.8737713777626378e-01  2.8259796988565844e-01  2.9034851222279562e-01  2.7649125165112909e-01  2.8512581998570186e-01  2.9182146962289601e-01 
 3.6760962914509709e-01  3.4011128895680270e-01  3.4108427945215364e-01  3.1755268437662426e-01  3.1782034637915185e-01  3.1605648764579908e-01 
 2.1348410608102553e-01  1.9598072749287665e-01  1.9930234725327384e-01  1.7563821798234991e-01  1.8036446449635116e-01  1.8345456854833345e-01 
 3.1605651447271238e-01  3.1782030039402537e-01  2.9944999007507089e-01  3.1755270785341405e-01  3.0120345444633428e-01  2.8537422499158310e-01 
 2.6887061637653725e-01  2.6787796067445530e-01  2.6000511592952935e-01  2.6540464751766718e-01  2.5884484334551622e-01  2.5151682469347769e-01 
-5.3037484134411006e-01 -4.8993861629611701e-01 -5.3999290666869504e-01 -4.5350905535990582e-01 -4.9948614093909477e-01 -5.4621517741357950e-01 
-2.1810745938264398e-01 -1.6524705976730106e-01 -2.1557046230838678e-01 -1.0473052105644849e-01 -1.5989087278144576e-01 -2.1616137133579966e-01 
-4.4798608994172190e-01 -4.6634763078924635e-01 -4.6360805793043830e-01 -4.8847945969045631e-01 -4.8614062500978683e-01 -4.7850003599724500e-01 
 3.0002254292227060e-01  3.0275225261955957e-01  3.0169229585098289e-01  3.0417662061470491e-01  3.0397930293324438e-01  3.0210008659762955e-01 
 2.4292665125214929e-01  2.2942326688129799e-01  2.3055031130624787e-01  2.1348408564679483e-01  2.1575498597365056e-01  2.1643722109677041e-01 
 2.3126302409566729e-02  1.3947885616122403e-02  1.2883052601272310e-02  6.7102813489515771e-03  6.1594788905090731e-03  5.6894443982261622e-03 
 8.2108049612399703e-02  7.8048711793365352e-02  6.2417853748170958e-02  7.3399331738353807e-02  5.9107134145085144e-02  4.5092476534243808e-02 
-3.9105760442872611e-01 -3.7675621702416795e-01 -3.6822838937066243e-01 -3.6411188404711681e-01 -3.5581171795005873e-01 -3.4422652586885394e-01 
-1.5705799217919691e+00 -1.6766046678456459e+00 -1.6019668545627677e+00 -1.7904384096169450e+00 -1.7090564562237367e+00 -1.6294534102283535e+00 
-4.8817400050897664e-01 -5.1706905156706984e-01 -5.2965030258029866e-01 -5.5049256944942759e-01 -5.6004439553122398e-01 -5.6541146548030730e-01 
-5.0491136550533146e-02 -4.5052175046455777e-02 -8.2744577379668935e-02 -3.8536973433599693e-02 -7.5969175641894343e-02 -1.1924015312090053e-01 
 2.2382920890990721e-01  2.2205711666317152e-01  2.0664524987744201e-01  2.1959395502139925e-01  2.0362103452062696e-01  1.8893093603868860e-01 
 2.6434845938422008e-01  2.5462139997577565e-01  2.5370799029732954e-01  2.4292663055697097e-01  2.4292241827179700e-01  2.4133408326934386e-01 
 3.8140274038289991e-02  5.1428670829805227e-02  4.4476862085875458e-02  6.5944681994357740e-02  5.9329977141046736e-02  5.0784530733929412e-02 
-5.3191582951644278e-01 -5.7485783648087985e-01 -5.4261873530075311e-01 -6.1995007484779807e-01 -5.8277755612866933e-01 -5.4977749421897193e-01 
 2.8308019853908395e-01  2.8066324237442652e-01  2.8885611889348839e-01  2.7726849608631243e-01  2.8641642818416230e-01  2.9366317722866303e-01 
 2.5089282983935739e-02  3.5504065949114531e-02  3.1609113097028005e-02  4.7526573714735787e-02  4.3647408366570023e-02  3.8140304185050933e-02 
 2.3135838980390896e-01  2.3351270569756397e-01  2.2298392934010025e-01  2.3464891761887113e-01  2.2486977494479166e-01  2.1398659761007177e-01 
 2.7918687668186920e-01  2.7254623649469267e-01  2.7003664010129141e-01  2.6434844220659837e-01  2.6254366550263175e-01  2.5918547015292887e-01 
 4.8833250078002738e-02  1.3040761327817197e-02  4.7943980680586140e-02  2.0043909894885827e-07  1.4203256143553536e-02  4.3126893080699003e-02 
-2.2625522141479201e-01 -1.8361415353130203e-01 -2.0289130437110350e-01 -1.4466328414862931e-01 -1.6071664148856982e-01 -1.7886718982166958e-01 
 1.8809516370300317e-01  1.8072691377449607e-01  1.9885791057255825e-01  1.7220590464781149e-01  1.9080457836016212e-01  2.0866555919205104e-01 
 1.2799330195262440e-01  1.3474071207176386e-01  1.4616095002473947e-01  1.4064131483582795e-01  1.5257242841758487e-01  1.6432062175389284e-01 
-2.1114337894350127e-01 -1.8301626465189072e-01 -2.0063246958724393e-01 -1.5443235550232740e-01 -1.7306122203849630e-01 -1.8551377432443561e-01 
-4.0979545602876233e-01 -4.7621745112655284e-01 -4.3908866590906470e-01 -5.4923459076748449e-01 -5.0746834741244951e-01 -4.6736883575365257e-01 
-6.6063303175279961e-02  1.8108827210427309e-03 -4.5461588584230460e-02  7.8193588914214782e-02  2.6780737587188189e-02 -2.6345240075096570e-02 
-1.6992211819331295e+00 -1.7944611108973243e+00 -1.6803774862254355e+00 -1.8936959376694045e+00 -1.7714090629823609e+00 -1.6568213310853130e+00 
 8.3565177580533709e-02  7.4278743249136608e-02  6.5925447891239636e-02  6.4409237507856043e-02  5.7585452030998754e-02  5.0117895020384495e-02 
 2.1330510796329075e-01  2.0784163705384959e-01  2.2565121118595266e-01  2.0243552388662017e-01  2.2040921821828782e-01  2.3716931955166842e-01 
 1.2825079176577539e-01  1.4580271008348911e-01  1.1946785165675475e-01  1.6162468256938614e-01  1.3709937951050705e-01  1.0903935976576104e-01 
-1.5773575306492125e+00 -1.6805771054819316e+00 -1.6483561675377851e+00 -1.7904383903592427e+00 -1.7572874062804631e+00 -1.7213853457532133e+00 
 3.0327587947706613e-01  2.8899765135036604e-01  2.9500606636619653e-01  2.7650063613727360e-01  2.8224014636194195e-01  2.8646577703616039e-01 
-8.2809056648553550e-02 -9.0512259469502004e-02 -6.7494801800313767e-02 -9.4687560820516631e-02 -7.2497027682969034e-02 -5.3080899290488537e-02 
 1.7325269762181811e-01  1.8282623030576697e-01  1.5652947930582994e-01  1.9325184038461846e-01  1.6937199680979423e-01  1.4405656941997499e-01 
 2.6261229158935767e-01  2.7341597133793655e-01  2.6998322944178327e-01  2.8849429368072649e-01  2.7924448540547858e-01  2.7042608996886736e-01 
 1.3724949238075893e-01  1.5010066774822059e-01  1.3318912461498983e-01  1.6228044669071082e-01  1.4536468810150041e-01  1.2849442469435998e-01 
 1.8912613008686219e-01  1.7927541302605882e-01  1.7511870843512470e-01  1.6785351599307849e-01  1.6437178907371711e-01  1.5992985600704313e-01 
 1.8826611739788721e-01  1.6690187744157958e-01  1.7584284222301588e-01  1.4242251907794415e-01  1.5277955522594050e-01  1.6162467507425393e-01 
 6.2249417448459604e-02  8.3472427417803474e-02  6.0465296197247650e-02  1.0322374706573852e-01  8.2023422963295817e-02  5.7602219245032310e-02 
 1.4985393419240786e-02  2.3868040993521755e-02  1.7075070032274656e-02  3.4812412083280522e-02  2.7537662783670577e-02  1.8239879333695530e-02 
 2.7726849543055165e-01  2.7307642113883029e-01  2.8294263624418131e-01  2.6779690422166852e-01  2.7851423380694146e-01  2.8737713708878221e-01 
 2.5918547427590116e-01  2.6254367007999169e-01  2.5113426618855644e-01  2.6434844872835267e-01  2.5370799408797762e-01  2.4133407006169941e-01 
-7.8339225998032516e-02 -7.0985108066535227e-02 -9.4736919020268970e-02 -6.0299705822850207e-02 -8.4777569425940391e-02 -1.1161336813866074e-01 
 3.7183911077303589e-01  3.4214168637846798e-01  3.5859369229617383e-01  3.1791200154503463e-01  3.3199015775679364e-01  3.4460434385713268e-01 
-9.6382469738119514e-01 -1.0303064718504769e+00 -1.0038705445840836e+00 -1.1014630455633445e+00 -1.0743796418934790e+00 -1.0429622521905242e+00 
 2.2019705794766954e-02 -1.0249383851768865e-03  3.0852443517554481e-04 -2.7161897638596878e-02 -2.4129622957089203e-02 -2.1393728174712134e-02 
-4.2663996970898849e-01 -4.0274528983371505e-01 -4.1440517631817897e-01 -3.7723144865898295e-01 -3.9518256232966920e-01 -4.0463075271825799e-01 
-4.3259991149100718e-01 -4.4950702756228433e-01 -4.4083751358317369e-01 -4.6796331319657791e-01 -4.6067626632258707e-01 -4.4835452847716578e-01 
 3.0210009451787068e-01  3.0388199422195122e-01  3.0135111908339057e-01  3.0404382378911299e-01  3.0261385009974295e-01  2.9950650303847415e-01 
 3.1755270925840684e-01  3.0274882574143941e-01  3.0120349607590235e-01  2.8999964781363546e-01  2.8857361808486259e-01  2.8537420678198383e-01 
 2.7891177292651448e-01  2.7292172182818514e-01  2.7299011794657763e-01  2.6419221176183844e-01  2.6657312727741556e-01  2.6777805230164609e-01 
 3.0123024254483727e-01  2.4926635836744354e-01  2.4559942654458433e-01  1.9744865153959112e-01  1.9917871011105961e-01  1.9931665684253919e-01 
 2.7891177422448860e-01  2.8513499641512552e-01  2.8018546998988958e-01  2.9098242304576438e-01  2.8692512114303459e-01  2.8050597011460943e-01 
 2.4726579278505162e-01  2.5391648038152870e-01  2.4074411550264627e-01  2.5918547034692746e-01  2.4674554682438701e-01  2.3272715894064630e-01 
 1.2849441317162627e-01  1.3921236721133762e-01  1.2288419547620259e-01  1.4938396468308687e-01  1.3284283832989860e-01  1.1614057842511341e-01 
 1.3162917668780039e-01  1.1245767488470942e-01  1.1610652404597722e-01  9.0551275530872458e-02  9.5309877024688308e-02  9.8923530984257907e-02 
 1.9956775040513111e-01  1.8703565121720767e-01  1.9674503584256392e-01  1.7284195378958608e-01  1.8338175477947716e-01  1.9262618689115982e-01 
 2.5696980581717210e-02 -2.2884461949954390e-03  1.0283461311205076e-02 -3.2886003137307551e-02 -2.0093312165160086e-02 -7.4577969704177072e-03 
 2.0769579406696387e-01  2.1947162287483482e-01  2.0263620545492123e-01  2.3028654649215166e-01  2.1397446993831870e-01  1.9653092561273855e-01 