<VTKFile type="UnstructuredGrid" version="1.0" byte_order="LittleEndian" header_type="UInt64">
<UnstructuredGrid>
<Piece NumberOfPoints="7326" NumberOfCells="4884">
<PointData>
<DataArray type="Float64" Name="τxy" NumberOfComponents="1" format="ascii">
 1.0034790362313467e-01  7.9734156330284592e-02  1.0245278496455573e-01  5.7006229919274419e-02  7.9688928522999206e-02  1.0349490785440683e-01 
 1.9039564298016076e-01  1.6537648337841188e-01  1.7084604883269155e-01  1.4029548204803033e-01  1.4479228673141573e-01  1.4895103442033325e-01 
-9.2521421755245956e-02 -1.1345657349810874e-01 -1.0604149758527577e-01 -1.3504738355168794e-01 -1.2664696652864085e-01 -1.1739793984968619e-01 
 3.5739781716427355e-01  3.4742178454032141e-01  3.4852733336355834e-01  3.3449020557016856e-01  3.3621398415328990e-01  3.3550334056569225e-01 
 3.6752603565565778e-01  3.6422364797730838e-01  3.6428529569356810e-01  3.5739779037196312e-01  3.5838953578552446e-01  3.5742416187232656e-01 
 2.7608437172095518e-01  2.8685821167436276e-01  2.6702811084053518e-01  2.9502658144980165e-01  2.7711731777594834e-01  2.5749958958655694e-01 
 2.5106796416704080e-01  2.4316428583098604e-01  2.6095577950763976e-01  2.3284067470742423e-01  2.5030354418120260e-01  2.6678109845379561e-01 
-2.1308092893160557e-01 -1.8023396275075276e-01 -2.0801727614913640e-01 -1.4075746888766999e-01 -1.7410197297715757e-01 -2.0339333158424369e-01 
-9.2491082085245924e-03 -3.7633367467479882e-02 -1.2752345074428280e-02 -6.6490204305284517e-02 -4.2012822653317211e-02 -1.6412715956517592e-02 
 1.6445516185950756e-01  1.4596943613825633e-01  1.6227614335403059e-01  1.2727206572379143e-01  1.4327852255660536e-01  1.5745760623640681e-01 
-2.7615206159936734e-01 -2.9090527482952483e-01 -2.6066030148688757e-01 -3.0363641180626494e-01 -2.7627591455208822e-01 -2.4490987541620662e-01 
 4.2495258674065517e-01  3.4305555733025095e-01  4.7103534569885241e-01  2.6648685488727591e-01  3.7860229978597576e-01  5.1387764995953433e-01 
-3.3478865096265603e-01 -3.1970913780618326e-01 -3.2379949243434236e-01 -3.0048689848982235e-01 -3.0728242774674885e-01 -3.1135494001533531e-01 
-1.5990850067716368e-02 -5.2944265357863967e-03 -2.9372694233919534e-02  3.3651002169700580e-03 -1.6892343663086121e-02 -3.9910672944827100e-02 
 1.3437631493822111e-01  1.5402754558211096e-01  1.5101823254673813e-01  1.7145721032026531e-01  1.7054755974196772e-01  1.6597611262420348e-01 
 4.8814537895385213e-01  4.6014632805102679e-01  3.5735044466065968e-01  4.2882656577047729e-01  3.3415308283737311e-01  2.4950432286785912e-01 
 3.3308932437041855e-01  3.3593292089478816e-01  3.1702534603135385e-01  3.3709935784049039e-01  3.2005757491301362e-01  2.9900585372663169e-01 
-1.3434958659622577e-02 -3.6264844792513594e-02 -2.1479939185724706e-02 -6.0639453018098324e-02 -4.6952423642733797e-02 -3.0689422876616145e-02 
 2.9105516268178738e-01  3.0177191176184309e-01  3.0740672607910258e-01  3.1190693786296486e-01  3.1861096563292884e-01  3.2151137264950080e-01 
-2.3263143383401028e-01 -2.0666318997307362e-01 -2.2344936545128449e-01 -1.7792575073996711e-01 -1.9822636340550115e-01 -2.1358992812276428e-01 
 6.1077745575192091e-02  6.9144601755521909e-02  7.6217759240532701e-02  7.4553810132254428e-02  8.4032439644282003e-02  9.4216947572630286e-02 
 2.0637217718150774e-01  2.5041857316756921e-01  2.2767157451984044e-01  3.0038154988402477e-01  2.7443241244819372e-01  2.4721505927532100e-01 
-1.7397360865316275e-01 -1.9436062131267731e-01 -1.9023186121233437e-01 -2.1352896128416665e-01 -2.1026207909176306e-01 -2.0352088483545366e-01 
 7.4553810551243466e-02  7.5820959328813178e-02  8.6559967570764923e-02  7.4947840943077562e-02  8.7164466046096248e-02  1.0006180997060853e-01 
-1.8490404187099885e-01 -1.9776064479999741e-01 -2.2056857489288173e-01 -2.0748590936868624e-01 -2.3458684605688482e-01 -2.6068617288022300e-01 
 4.1377746865784264e-02  3.3587973406935381e-02  4.5721983268424200e-02  2.4297662933935600e-02  3.6733013296105767e-02  5.0490050089202008e-02 
-4.3031845109107694e-02 -5.6886031181685566e-02 -4.9463534837600069e-02 -7.1493129728241206e-02 -6.5099309316131629e-02 -5.6607930651265584e-02 
 1.3888632422139122e-01  1.7077417191548236e-01  1.4645221348373758e-01  2.0748594094255193e-01  1.7950240969526970e-01  1.5075786958936016e-01 
-3.8454487430775236e-01 -3.8714593309534967e-01 -3.9444660820968180e-01 -3.8773487863106593e-01 -3.9514567591205763e-01 -4.0047324158973691e-01 
 3.0062652915533883e-01  2.7740102274483208e-01  2.8194885371685541e-01  2.5291852729393721e-01  2.5667257635374635e-01  2.5996661282423922e-01 
 2.6096738522511091e-02  5.8842933260769795e-02  7.6826789605982326e-02  8.9157446894466308e-02  1.0620206694270128e-01  1.2660075600291190e-01 
 2.3798003652091318e-01  2.5252332648776760e-01  2.5340822629468568e-01  2.6622563172796188e-01  2.6849647202621163e-01  2.6678108333337575e-01 
-6.2606639610155806e-02 -2.3993466374585732e-02 -2.1549090916426730e-02  1.1758401847570535e-02  1.5686987046118504e-02  2.6096834887001246e-02 
-7.6795697314420300e-03  9.0816312151883911e-03 -1.2158087171289612e-02  2.6122208398363173e-02  3.4782220473631878e-05 -2.2104568689587066e-02 
-1.4440505798343706e-01 -1.7862907163139857e-01 -1.6970405167051866e-01 -2.1094053185757924e-01 -2.0088377068628457e-01 -1.8935762789522023e-01 
-2.4078512869214577e-01 -2.4893860735217477e-01 -2.6519507886872534e-01 -2.5477420292778646e-01 -2.7095250289539730e-01 -2.8712214595045277e-01 
-1.7356807508382788e-01 -1.9483812822985092e-01 -1.7558449554503719e-01 -2.1352895196852939e-01 -1.9436064698830036e-01 -1.7397356192204846e-01 
 4.4680073981614728e-02  4.0454274388314962e-02  6.9536617504152146e-02  3.5599661518892337e-02  6.6357038181042438e-02  9.5428002263550388e-02 
 8.9600650641956561e-02  6.7059747181399121e-02  6.5146623249152658e-02  4.3793272733118956e-02  4.2561558800672077e-02  4.0851740759758039e-02 
 1.6559746464032535e-01  1.4561418065933487e-01  1.7118895335935269e-01  1.2117116283629292e-01  1.4887305940346579e-01  1.7588735143176154e-01 
 1.4812552775860824e-01  1.5817043366056521e-01  1.6355801536416875e-01  1.6781168449151254e-01  1.7460858310225449e-01  1.7877795996822995e-01 
-7.4439850447377970e-02 -7.1335747077990716e-02 -9.8990028348984807e-02 -6.4737594982024527e-02 -9.6735683726862018e-02 -1.2829059302192750e-01 
 9.3448894843268349e-02  1.1977444379973794e-01  9.4026423422312502e-02  1.5075790462197486e-01  1.2137588764718728e-01  9.1481839569622886e-02 
-1.1302189083063427e-01 -1.0200672699623446e-01 -9.2194782690088670e-02 -8.8473407229438500e-02 -7.9983849792662209e-02 -7.1891945485243566e-02 
-1.5690275075193993e-01 -1.2617829398162594e-01 -1.4504322022063007e-01 -9.5104158617721632e-02 -1.1531838520554501e-01 -1.3363487959480380e-01 
 1.6597612206580850e-01  1.7054751966804324e-01  1.8649807850917832e-01  1.7145722123415369e-01  1.8915423206666543e-01  2.0531387634529849e-01 
 2.1802401776810695e-01  2.5283417867462699e-01  2.4484128747337144e-01  2.8442097873788452e-01  2.7914070875542096e-01  2.7110084773691939e-01 
 1.9818288606080553e-01  1.7815194666846931e-01  1.9243005956038856e-01  1.5745761134442082e-01  1.7174074771842718e-01  1.8404524927257254e-01 
-5.6607929368763424e-02 -7.3725351696851280e-02 -6.3985459385923399e-02 -9.1471392573717308e-02 -8.2849775403929668e-02 -7.1891947647968510e-02 
-3.9822244220159742e-01 -4.0368404439235528e-01 -4.0074894397217359e-01 -4.0531427945907578e-01 -4.0425005398440550e-01 -4.0128547663113184e-01 
 2.6906724850228807e-02  2.4437103418824421e-02  1.4244558753284403e-02  1.8618670633017063e-02  1.0366738189948778e-02  4.7973308064902078e-03 
-1.0558242846026794e-01 -8.4848643208027374e-02 -9.8066188766155443e-02 -6.5336121547741030e-02 -7.8341555917804159e-02 -8.8984466268944490e-02 
-2.3670648611861006e-03 -4.7301887218518792e-03 -2.7483494328761331e-02 -6.7995517038923975e-03 -2.8360169533866171e-02 -5.1685426196212345e-02 
 2.6622563010964045e-01  2.7895594493992409e-01  2.8221455153847314e-01  2.9105516630844236e-01  2.9545410916208237e-01  2.9608191101060244e-01 
 5.8708007054744082e-01  5.5180813706944576e-01  4.8194440298110380e-01  5.1387759757816209e-01  4.5177660942144909e-01  3.8823155695370093e-01 
-1.3707292539046870e-01 -1.5605775820720208e-01 -1.5659908659612107e-01 -1.7356805649543267e-01 -1.7558457507211128e-01 -1.7397356513177920e-01 
 1.5019753600929392e-01  1.2908659771055384e-01  1.2096017232812628e-01  1.0698466798966207e-01  9.9464455735454468e-02  9.1308754195471173e-02 
-5.3835204126659694e-02 -6.0182644344241101e-02 -5.7154845805702972e-02 -7.0273549888427753e-02 -6.5159557732649476e-02 -5.9871355830876660e-02 
-3.7357347124481105e-01 -3.7981257886575659e-01 -3.8264791014317162e-01 -3.8183546021999432e-01 -3.8698836950648652e-01 -3.9029120951971402e-01 
-7.8389639608385547e-02 -9.1087910345425266e-02 -7.9705055666836028e-02 -1.0539342752408466e-01 -9.2136997260698364e-02 -7.9020499105642225e-02 
-5.8494251690232958e-02 -3.3071398680744414e-02 -3.9950316601814292e-02 -1.3196438586281928e-03 -1.4637031105925973e-02 -2.3994883917884274e-02 
-1.8456616079521124e-01 -1.8232866895461164e-01 -1.6660406158111601e-01 -1.7662381457413714e-01 -1.6303479040894761e-01 -1.4765913989243618e-01 
-3.6823696204360094e-02 -1.0594996253864739e-01 -7.1246206876882767e-02 -1.8538831163614208e-01 -1.4748897340131756e-01 -1.0757846382565310e-01 
-7.0273566590970227e-02 -8.3011215542776434e-02 -7.5236829568093189e-02 -9.8040609700681930e-02 -8.8211230667332968e-02 -7.8389636142328176e-02 
-7.9020499128402019e-02 -9.0495662134979352e-02 -7.6308541551152700e-02 -1.0305562482196694e-01 -8.7088190414917249e-02 -7.1493129979080222e-02 
-2.4539152291000610e-01 -2.2240971855885996e-01 -2.4262335172642663e-01 -1.9602389924899027e-01 -2.1753094921667032e-01 -2.3653003842634265e-01 
-6.0124472039478835e-02 -3.3477186981654056e-02 -2.9017528047907828e-02 -6.9515507646151081e-03 -2.3655065218715901e-03  2.3138339091751123e-03 
 1.9208835510271199e-01  1.7009548356823270e-01  1.7977963567019978e-01  1.4792711098745326e-01  1.5644785032962316e-01  1.6471896796775787e-01 
-1.8721868419944961e-03 -1.7317828468551635e-03  1.3719094328570550e-02 -1.5316522566586794e-03  1.2133847999372744e-02  2.7737817157182224e-02 
 3.3217321713256609e-01  3.5392692370651968e-01  3.5188105064131792e-01  3.7111585463566998e-01  3.7091067945285211e-01  3.6922486139366945e-01 
-2.5716901785205892e-01 -2.7408031577157155e-01 -2.6044206683721055e-01 -2.9055462650560843e-01 -2.7740944128616662e-01 -2.6078795557407941e-01 
 5.1319364356985774e-02  5.2405490812082747e-02  5.3714469168785944e-02  5.5878973913815022e-02  5.8005152060486509e-02  5.8085596674888891e-02 
 1.0191511636737012e-01  1.0195143309875382e-01  7.2854132365270649e-02  1.0151687975669643e-01  7.3518014966560283e-02  4.4111226980815467e-02 
 3.1098350163500738e-02  7.0666873044679052e-03  4.4904843627906459e-03 -2.5042428882228761e-02 -2.1915937252068283e-02 -1.2651167105820023e-02 
 1.7848156485025482e-01  2.1561521893183652e-01  1.3948468906283798e-01  2.3988625854419746e-01  1.8049999958343560e-01  9.5177523145729026e-02 
 8.7019541268244835e-02  5.3888407572559548e-02  8.1506878578888303e-02  1.9821433195593558e-02  4.7383725631543777e-02  7.5484774284355044e-02 
-2.4490982184022214e-01 -2.7627593184191851e-01 -2.6264797286258146e-01 -3.0363635444076303e-01 -2.9089577527955934e-01 -2.7767534454123977e-01 
-1.7585943724152472e-01 -1.8766895989198054e-01 -1.9704524492804307e-01 -1.9769847920052053e-01 -2.0996244689903545e-01 -2.1670701796005773e-01 
-2.9055463290889416e-01 -3.0553169790309265e-01 -2.9350251794531135e-01 -3.1995972281285079e-01 -3.0863837571851405e-01 -2.9362611816474332e-01 
-2.1291852035938785e-01 -2.0754827090303174e-01 -1.9506014981241407e-01 -1.9913902800402244e-01 -1.8907680059123141e-01 -1.7662379656565391e-01 
 3.1541945560427581e-01  3.2098936186919264e-01  3.0591705375694278e-01  3.2316996657046682e-01  3.0830169291322157e-01  2.9241577175676048e-01 
 2.6266061310544131e-01  2.5391078218072805e-01  2.6749052178302751e-01  2.4321430001296102e-01  2.5127535236823856e-01  2.6409490804692509e-01 
 1.4183819628264871e-01  1.1434963123366584e-01  1.0932643782643472e-01  8.7019530827452590e-02  8.1506877256570132e-02  7.5484761936423769e-02 
 2.1147568881019102e-01  2.2410455782884398e-01  2.3175810934471952e-01  2.3284066509919715e-01  2.4316427198796337e-01  2.5106795615944033e-01 
-3.5083863937540161e-01 -3.6071983098097177e-01 -3.6274474364080755e-01 -3.6646360973704578e-01 -3.7105668275650944e-01 -3.7357345916483509e-01 
 7.0225900578577291e-02  7.2030876374982261e-02  3.3542795495717592e-02  7.5754067195202945e-02  3.1831441062493158e-02 -5.6126342955594762e-03 
-6.0639454504119193e-02 -7.1409347093690123e-02 -4.6952433167766136e-02 -8.2625499100222072e-02 -5.6376991649312924e-02 -3.0689418376270844e-02 
-5.9172244996326735e-02 -6.7558489805475769e-02 -3.7772304936851263e-02 -7.6458339816289647e-02 -4.5231640262039921e-02 -1.4500025831093643e-02 
 2.0785482856385457e-01  1.8813971261998949e-01  2.0137984605624504e-01  1.6781168198897239e-01  1.8003761608336141e-01  1.9208835261664603e-01 
 6.0676830007215431e-02  3.0393590475305383e-02  3.3796024551493310e-02 -2.5765878164501084e-07  2.4641113743660635e-07  7.2470353337366884e-10 
 4.7600658344199021e-02  4.0892906905379028e-02  2.3759787242498207e-02  3.0665708708114772e-02  1.3256321684182264e-02 -2.0561677756915654e-04 
-2.0806820884478242e-01 -2.2912560436605045e-01 -2.5142052228391010e-01 -2.4721506069722002e-01 -2.7443243716524651e-01 -3.0038154315500365e-01 
-7.0741714911778752e-01 -6.1902091260897707e-01 -6.2556329124214183e-01 -5.4146380385113124e-01 -5.4644488687600756e-01 -5.4371547571992096e-01 
 1.9818288371733184e-01  1.9243007232454004e-01  2.1283822291194970e-01  1.8404524294020724e-01  2.0504660927087470e-01  2.2535982060540455e-01 
 1.5103741400547682e-01  1.3598174311354247e-01  1.5884752457886808e-01  1.1772003583712984e-01  1.4164911229166813e-01  1.6559747776649730e-01 
 1.3517002059070218e-01  1.4320510308484005e-01  1.0467214597207396e-01  1.5065063425836972e-01  1.0877141205611732e-01  7.0225849504558457e-02 
 3.2619018006287753e-01  3.1485803133956475e-01  3.3095808713249542e-01  3.0048230513830293e-01  3.1869892819096701e-01  3.3449025451641268e-01 
-9.6329377109576966e-03 -4.7080413373151012e-02 -1.5684014082063411e-02 -9.1296218455348327e-02 -5.6122191510406254e-02 -2.0828200111002563e-02 
 1.9743633354888702e-02  2.1811404285977894e-02  3.0059242079950282e-02  2.4297661770237327e-02  3.3587970756898684e-02  4.1377746902784222e-02 
-5.6126467474226210e-03 -1.1268805307739381e-02 -4.7959580313055555e-02 -1.2893020726730143e-02 -5.7238739586560006e-02 -9.0683589521136670e-02 
 1.2020496489987843e-01  1.5757375242931873e-01  1.5521545966204101e-01  1.9202055078983224e-01  1.8825113545413533e-01  1.8824256384798760e-01 
 3.1427027322783152e-01  3.2431582629184458e-01  3.0499094487874051e-01  3.3101826502078713e-01  3.1474362280718027e-01  2.9502657992094355e-01 
-3.1382735022583619e-01 -3.2960893469438235e-01 -3.1854210314434900e-01 -3.4292678846044422e-01 -3.3362756564974888e-01 -3.2176558135877331e-01 
 2.3284064801429530e-01  2.3743635785315395e-01  2.5030356205161536e-01  2.3798003023121134e-01  2.5340822315037626e-01  2.6678107757527242e-01 
 2.2535979310654988e-01  2.3422290609367089e-01  2.4318421426480652e-01  2.4046199954596062e-01  2.5180979222299493e-01  2.6023751656932415e-01 
 1.4132981440467624e-01  1.1820291574226481e-01  1.1571441180345791e-01  9.4323523358111366e-02  9.2369996468602722e-02  8.9600648390131835e-02 
 4.7600643839017034e-02  6.7436170887747421e-02  4.0892848779171112e-02  9.1481876530593809e-02  6.1202501048804779e-02  3.0665689915642291e-02 
 2.1162937908928564e-01  1.9569864633298845e-01  2.1110707034702000e-01  1.7877795775318978e-01  1.9341608083449230e-01  2.0785483210434366e-01 
-4.3031845671060727e-02 -4.9683567379160458e-02 -5.6886035874620579e-02 -5.4635415881679132e-02 -6.2542267402484045e-02 -7.1493130411033362e-02 
 2.1925940951939826e-01  2.6175441742972222e-01  2.4097837210121406e-01  3.0941758318066287e-01  2.8566745052988396e-01  2.6068615530348904e-01 
 1.8608303208859084e-01  1.5973121724734266e-01  1.5421645450110610e-01  1.3277071477081354e-01  1.2720206819061783e-01  1.2099605289139161e-01 
-2.1094052333326244e-01 -2.3836086470571199e-01 -2.2762419012603105e-01 -2.6343916234346432e-01 -2.5205236197012920e-01 -2.3917739152786538e-01 
 2.0948469896976585e-01  2.1028287483543207e-01  2.3677255514737547e-01  2.1059671532205068e-01  2.3831451766408290e-01  2.6330099100807230e-01 
 3.8338596492497146e-01  3.8843171033616042e-01  3.7795066678917527e-01  3.9195223108242888e-01  3.8144434794692328e-01  3.6806509292877421e-01 
 8.0275294814137976e-02  4.3449330235968205e-02  1.9309137348697897e-02  8.4649448753638008e-03 -1.1458028300526224e-02 -3.4160714711231180e-02 
 3.5835783151877615e-01  3.6409063179718670e-01  3.4665902614190086e-01  3.6806512015055209e-01  3.5082516612963249e-01  3.3059483565911657e-01 
 3.2128961624327701e-01  3.4127079497386692e-01  3.3166831864971968e-01  3.5797662646329675e-01  3.4854479488822576e-01  3.3739715839307588e-01 
 3.0125303697683507e-02  1.3677818581917002e-02  3.1188346281804169e-02 -4.3630489194314715e-03  1.2989025304242199e-02  3.2004241001189156e-02 
 3.2902383447456846e-01  3.0978107439333752e-01  3.1665425056024249e-01  2.8867744361406628e-01  2.9490016247642764e-01  3.0062652071125323e-01 
 1.0680949488983869e-01  6.7916488582279860e-02  1.1470334386892266e-01  2.3995380140461414e-02  7.8686407819886214e-02  1.2474909673595372e-01 
-3.3759204071019161e-01 -3.1954401893082440e-01 -2.6358908217477856e-01 -2.9915004674977641e-01 -2.4625611349421861e-01 -1.9629058942365432e-01 
 3.5425879956232531e-01  3.6008523411227267e-01  3.5877173151156577e-01  3.6442636109116350e-01  3.6330651091779503e-01  3.5982659645974341e-01 
-2.4575530849076685e-03 -8.1861693078392958e-03  2.0360049367130824e-02 -1.4500031600711045e-02  1.5669922672600312e-02  4.4680072994893134e-02 
 2.3337177344863047e-01  2.3324319543862784e-01  2.1283275237650490e-01  2.2897979030012197e-01  2.0921881335576617e-01  1.8870598274963069e-01 
 3.4104197210409179e-02  2.7452287467818630e-02  3.7281543086410941e-02  1.9743633911410874e-02  3.0059241747746344e-02  4.1377748631787323e-02 
 2.5144275068840566e-01  2.7414088552981747e-01  2.6941676022663230e-01  2.9241578457020118e-01  2.9144734949384299e-01  2.8639708577142042e-01 
-9.0956937333733459e-02 -1.2263143731518245e-01 -1.3297514152836151e-01 -1.4834437550221399e-01 -1.6197813775035066e-01 -1.7249353574750892e-01 
 3.4168245282326304e-01  3.3306193529662992e-01  3.4443517582949967e-01  3.2151136966831306e-01  3.3271397299886324e-01  3.4321391020905745e-01 
 5.7006233738023181e-02  3.3253973814506871e-02  5.5086319604970228e-02  7.8952198566052002e-03  2.9288183491185796e-02  5.2238796448086815e-02 
 9.2569350642200177e-02  1.1875938282121047e-01  8.0461372380431564e-02  1.4702318720825464e-01  1.0967534437998423e-01  7.0186184476779309e-02 
-2.6431187995353306e-01 -2.8333486817089865e-01 -2.7406214493795111e-01 -2.9992218323127756e-01 -2.9038804365788662e-01 -2.7912291773505554e-01 
-3.2554205482064047e-01 -3.4883788842091429e-01 -3.3437202745254480e-01 -3.6774510991870829e-01 -3.5473613863233588e-01 -3.4000543047437232e-01 
-1.8935760635559326e-01 -2.0088377472329061e-01 -2.1535885182451722e-01 -2.1094050787775037e-01 -2.2762417772830981e-01 -2.3917736874151224e-01 
-3.1995973017726820e-01 -3.3299141986732900e-01 -3.2322843863380796e-01 -3.4527468991792953e-01 -3.3652440062572347e-01 -3.2391982696045801e-01 
 2.3337390259358708e-02  4.1625467577966063e-02  1.3628045951378167e-02  6.4737638996778035e-02  3.2443054661782877e-02 -2.0752662931555588e-08 
 3.4321390904370180e-01  3.2880021494010353e-01  3.3806474952891374e-01  3.1190693302982608e-01  3.2074724875173605e-01  3.2902382667766622e-01 
-2.1352898683510529e-01 -2.3147756559939084e-01 -2.2892044982625306e-01 -2.4846369800600304e-01 -2.4682732281521186e-01 -2.4145581649138970e-01 
-1.5620179026372316e-01 -1.9419528135555295e-01 -1.9893755438898506e-01 -2.2865867544184554e-01 -2.3246294045568486e-01 -2.3399249675545480e-01 
-9.5874427234811502e-02 -9.5332780441471768e-02 -1.2118995282708882e-01 -9.1481839229619097e-02 -1.2137589281131336e-01 -1.5075790261658906e-01 
 5.5878983579488853e-02  6.4636373744769923e-02  5.8005141996993297e-02  7.4553819467716595e-02  6.5262185490774449e-02  5.8085609982275910e-02 
-2.4846371898687808e-01 -2.6346125429525419e-01 -2.4682730571729539e-01 -2.7571761197206940e-01 -2.5894187395964524e-01 -2.4145582084716471e-01 
-7.1891948426122565e-02 -7.9983839683358940e-02 -5.8973737812011373e-02 -8.8473412113721436e-02 -6.5693128970065615e-02 -4.3873587602886427e-02 
 4.4793641054935086e-02  5.1874154013132785e-02  6.6526666750088809e-02  5.7917666794321185e-02  7.5429536316758042e-02  9.0194949802975058e-02 
 9.5570267058379330e-02  9.8126395250829737e-02  1.2210228854203947e-01  1.0041866247199321e-01  1.2571008302003905e-01  1.4895104081541846e-01 
 9.0194980699946303e-02  7.5429489835763905e-02  9.6143093914051320e-02  5.7917690297354017e-02  7.8541563136783704e-02  1.0034789534705865e-01 
 5.2238804503923951e-02  2.5567456192811932e-02  4.8835228598156435e-02 -2.4575492944373528e-03  2.0360053996979363e-02  4.4680075975138192e-02 
-2.1058810091985147e-01 -2.3650005036269331e-01 -2.1623577956855786e-01 -2.6059590848989639e-01 -2.4308503327734404e-01 -2.2110057695822130e-01 
 3.7572133110531605e-02  6.1193738835598241e-02  9.6772124208863317e-02  8.4953374011151606e-02  1.2534875599319736e-01  1.6373581202211124e-01 
-2.2378381055398644e-01 -1.9463831994995745e-01 -2.1837291211429502e-01 -1.5790523281353039e-01 -1.8698422124457534e-01 -2.1308092399458767e-01 
 2.4297662665711216e-02  1.3825277461376547e-02  2.5907145256199464e-02  2.0953866154955103e-03  1.3952650067365900e-02  2.7454192651673003e-02 
 8.8480098095276766e-02  9.2108136010451411e-02  1.1412558342789328e-01  9.5570268845401374e-02  1.1898413176840271e-01  1.4029548903888978e-01 
-1.2458800396703429e-01 -9.6246734792377261e-02 -1.0570675303034174e-01 -6.6784912410761343e-02 -7.3224651729394505e-02 -7.8989202365556122e-02 
 1.9818289168595593e-01  2.1622315477259119e-01  1.9627936164694695e-01  2.3337178152301732e-01  2.1283276409924665e-01  1.8870595380634764e-01 
 3.0629591914539900e-01  3.1346875373697519e-01  3.1917657371381986e-01  3.1616832772949804e-01  3.2442858808365233e-01  3.3011248483305589e-01 
 2.4097651749110585e-01  2.7111963439719544e-01  2.2466914830658705e-01  3.0038153098483922e-01  2.5041849108859426e-01  2.0637214402133405e-01 
 1.0220537170381824e-01  1.5246990991595835e-01  8.8484270654672181e-02  2.0599363061309278e-01  1.3540927153960094e-01  7.2678164065367215e-02 
 5.2220081683625935e-02  8.2066033179943931e-02  7.0770813688196738e-02  1.0815372771460009e-01  1.0868553478507846e-01  8.4467897514451176e-02 
-1.9269306046043722e-01 -1.8861790324482980e-01 -2.0832388312597441e-01 -1.8153306914602177e-01 -2.0180153864439684e-01 -2.2143452609539813e-01 
 8.1056090596652947e-02  8.4847298012553737e-02  1.0517363876593562e-01  8.8480099514710364e-02  1.1031467744417571e-01  1.2997973321156953e-01 
 3.1616603911761815e-01  3.2179187103596762e-01  3.3466248738545062e-01  3.2316997742559067e-01  3.3652374244740801e-01  3.4875558988313382e-01 
 2.4191619219968438e-01  2.0907275706949191e-01  2.3477079743851895e-01  1.7010241494175882e-01  1.9968616595960278e-01  2.2692910302638172e-01 
-7.1493129282444265e-02 -8.1109167183726141e-02 -6.5099307140345494e-02 -9.1471394055634161e-02 -7.3725354801675580e-02 -5.6607930951043502e-02 
 2.6353370802491499e-01  2.7733461148168370e-01  2.9229431158456426e-01  2.8639710259693818e-01  3.0191337864905676e-01  3.1616606016667392e-01 
 1.4096210237589860e-01  1.1913423169553690e-01  1.4467095273319897e-01  9.5428004552666937e-02  1.2147587847614678e-01  1.4809263197726436e-01 
 7.3220081789845390e-02  7.7212580913156290e-02  9.5245333626929357e-02  8.1056090905064701e-02  1.0066330594016253e-01  1.1809512633253655e-01 
-9.4542649468087089e-02 -6.5648100487036509e-02 -1.4351472299446583e-01  1.5537225039011705e-06 -1.0014873239482242e-01 -1.8834570597975592e-01 
 2.8367556286980083e-01  2.9234498374915036e-01  2.7263228570005099e-01  2.9861968295063601e-01  2.8047272553713209e-01  2.6022196989199176e-01 
-1.9829265854098604e-01 -2.1489801314642923e-01 -1.9826153645258920e-01 -2.3133056120228973e-01 -2.1420678523200612e-01 -1.9554553144254794e-01 
-2.7571762320173654e-01 -2.8458184498569278e-01 -2.6828294674624853e-01 -2.9055463351814775e-01 -2.7408031086714491e-01 -2.5716901526907560e-01 
-1.0928508617826375e-01 -1.5251555697908714e-01 -1.0789995025013530e-01 -1.9057024505984091e-01 -1.4732939603111445e-01 -1.0111801682143406e-01 
 6.3723771315844738e-02  5.7724228436806871e-02  7.7172025708647424e-02  5.0286726590652309e-02  6.8954480400189547e-02  8.9022787614573190e-02 
-8.6724705748265157e-02 -7.7700517391810192e-02 -3.6548065392590742e-02 -7.0170758204199796e-02 -2.3241358509287414e-02  2.2106217529249537e-02 
-1.2115387952347935e-01 -1.5264310770216960e-01 -1.4379571740609001e-01 -1.8949284639311706e-01 -1.7881600731278019e-01 -1.6490438177079239e-01 
-2.5048311253576316e-01 -2.3458128869948933e-01 -2.4942089840045392e-01 -2.1670700346926575e-01 -2.3093176606040974e-01 -2.4349183063433424e-01 
 1.5490451286569157e-01  1.4546123166555786e-01  1.4026640060105497e-01  1.3454574001003569e-01  1.3183249977375708e-01  1.2602206454203452e-01 
 1.0151687437897394e-01  7.4064909805215184e-02  7.3518014778281640e-02  4.7141875948528658e-02  4.5781629078210949e-02  4.4111216339159397e-02 
-2.5428857343939432e-01 -2.7862419704269142e-01 -2.9877186518028115e-01 -3.0038151864437290e-01 -3.2493863817161645e-01 -3.4798556782971618e-01 
-3.0689415103023952e-02 -3.7947775006283185e-02 -1.2472649612225332e-02 -4.5786289320078437e-02 -1.8483693488740623e-02  7.8952122926104710e-03 
-1.8357334218930987e-01 -2.1706474650165744e-01 -2.0141040683225231e-01 -2.4867694989291503e-01 -2.3265682479424779e-01 -2.1565572229905583e-01 
 5.2211638428812455e-02  6.6304871550279532e-02  7.2684983881516688e-02  7.7924840428700820e-02  8.5777407828420180e-02  9.4352725611065141e-02 
 4.9459206221813122e-02  4.7928292813798325e-02  5.2088934076328031e-02  5.0149268746339161e-02  5.5628175236343010e-02  5.7910744311562429e-02 
 2.6678107113274563e-01  2.6849646868894905e-01  2.8184515045614317e-01  2.6622562667005978e-01  2.8221455060402312e-01  2.9608190744103696e-01 
 2.0133197077891291e-01  2.0372948595474466e-01  2.2743598368242127e-01  2.0570943211682083e-01  2.3078031457962417e-01  2.5291853326046482e-01 
-4.3726107152960497e-03 -6.7329384878216450e-03  2.0874704929427550e-02 -9.2491247012735471e-03  1.9450682616803324e-02  4.7141878995378438e-02 
 2.6321384271086234e-01  2.3729653734303638e-01  2.3674639761531960e-01  2.1059671952888231e-01  2.0946253954307925e-01  2.0766203669394195e-01 
 2.2700283895877371e-01  2.4382843690680259e-01  2.5318396489235029e-01  2.5596019883717930e-01  2.6688416536077508e-01  2.7607056155879156e-01 
-9.1471391545491498e-02 -1.0200315731529165e-01 -8.2849774681999375e-02 -1.1302189394139246e-01 -9.2194783366673597e-02 -7.1891948330140468e-02 
 1.1809512893292934e-01  1.0066330844572913e-01  1.2415164684981422e-01  8.1056095396477262e-02  1.0517363872280443e-01  1.2997973907141730e-01 
 2.8306361190325896e-01  3.0552647325623944e-01  3.0130303015956306e-01  3.2358307936916358e-01  3.2198451627169167e-01  3.1828425890187051e-01 
-4.2202743298095008e-02 -5.1628212641203472e-02 -2.9914143473041555e-02 -6.0639471624272259e-02 -3.6264823787597551e-02 -1.3434996313659563e-02 
 4.8065310376689867e-02  8.0972664990123649e-02  5.6790492427470529e-02  1.1671732408535228e-01  8.8312529388487215e-02  6.2989075386758520e-02 
 3.7264820011711541e-01  3.7663985433089309e-01  3.8513183886375624e-01  3.7974415143699353e-01  3.8890397277354427e-01  3.9451051803657650e-01 
 2.4055999178937695e-01  2.4146733667815018e-01  2.5788329732849052e-01  2.4336903978039509e-01  2.5514389745240285e-01  2.6594286884126100e-01 
-3.0093019511235053e-01 -2.8632689150221186e-01 -3.0303822389428670e-01 -2.6589434378859605e-01 -2.8554995764272412e-01 -3.0365821285819372e-01 
 2.7454192955363194e-02  1.3901676619855705e-02  2.8885674936278662e-02 -1.2338009026255641e-03  1.3630161725561890e-02  3.0125304345116424e-02 
 5.7917684594014779e-02  5.8044578497785410e-02  7.8541549608200853e-02  5.7006214050119165e-02  7.9734176840019252e-02  1.0034789346903014e-01 
 5.3025616375042113e-02  6.3582656970826962e-02  5.5098934772070104e-02  7.4947834773541278e-02  6.4127086968501654e-02  5.5878985247040804e-02 
-6.9998999598301748e-01 -6.1769537933671170e-01 -6.0371952499666515e-01 -5.4371550818297365e-01 -5.3168317272349752e-01 -5.1092663970745167e-01 
 5.3025617519483190e-02  4.8000027341612676e-02  5.9392891993824332e-02  4.1377746743397871e-02  5.3553774586354866e-02  6.6791578238587390e-02 
 1.4792711640575099e-01  1.3420246698179039e-01  1.5644783948696561e-01  1.1809512522819654e-01  1.4126751836360846e-01  1.6471897781165590e-01 
 2.9608190240598259e-01  2.9545410452064491e-01  3.0915627648324628e-01  2.9105516216037519e-01  3.0740672684928955e-01  3.2151137015522985e-01 
 9.3358314319641297e-02  9.0380220294406247e-02  1.2196868545072399e-01  8.7019524356943781e-02  1.1966933189157328e-01  1.5079107279896203e-01 
-1.5690274403073654e-01 -1.6828662076459860e-01 -1.3674708673926378e-01 -1.8003467981507998e-01 -1.4761339189472283e-01 -1.1449488365237938e-01 
-2.7505966398990578e-01 -2.8568150405427284e-01 -2.5889244036764375e-01 -2.9567496216989952e-01 -2.6927850152062605e-01 -2.4082839323797919e-01 
 1.7877795389915635e-01  1.7460858839987595e-01  1.9341608813713854e-01  1.6781168217299877e-01  1.8813970878990352e-01  2.0785482950973228e-01 