<VTKFile type="UnstructuredGrid" version="1.0" byte_order="LittleEndian" header_type="UInt64">
<UnstructuredGrid>
<Piece NumberOfPoints="7326" NumberOfCells="4884">
<PointData>
<DataArray type="Float64" Name="τxy" NumberOfComponents="1" format="ascii">
-3.0570439965560758e-01 -3.1425827902922054e-01 -3.0009187569908508e-01 -3.1995973595377547e-01 -3.0553168511704504e-01 -2.9055463908507839e-01 
 5.9697221296914404e-02  3.7203434519233497e-02  7.3012663400584502e-02  1.2903695547108126e-02  4.6641357370792808e-02  8.6506439738156166e-02 
 5.7269487010100262e-02  4.0731124114183344e-02  3.2002056293091802e-02  2.6898839471761644e-02  2.0065664420213489e-02  9.9177990485499311e-03 
-2.8780139137992444e-01 -3.0639811435988945e-01 -3.0132004062073764e-01 -3.2212247414818979e-01 -3.1888516871556333e-01 -3.1306857012013983e-01 
-2.8245132807647311e-01 -2.9535814446592690e-01 -2.8191008060736833e-01 -3.0552154699449718e-01 -2.9235834586279064e-01 -2.7899672125033537e-01 
-2.2893136354576595e-02 -2.0996188885009759e-02 -5.0722819873883003e-02 -7.3279307268958871e-03 -4.1383246221075455e-02 -8.6060667378209652e-02 
-3.2717655584221644e-01 -3.1085467353642876e-01 -3.2358179925159275e-01 -2.9330415666937842e-01 -3.0791265725930483e-01 -3.1931215254024092e-01 
-3.4760285089751125e-01 -3.4541553197335656e-01 -3.5286102352368837e-01 -3.4097320040676948e-01 -3.4827310903139247e-01 -3.5405276673091490e-01 
-8.1360840611532786e-02 -1.1167207427905908e-01 -8.8081791202389181e-02 -1.4136509789630175e-01 -1.1826551903101651e-01 -9.4357951567106371e-02 
-5.1288316827165337e-01 -4.4716714272806890e-01 -4.4512571857736655e-01 -3.9244553086839074e-01 -3.8943509046814428e-01 -3.7898643829720169e-01 
 1.4810805141432254e-01  1.6700360379149459e-01  1.8012555092942661e-01  1.8456339620906512e-01  1.9404452506573996e-01  2.0615327774374123e-01 
 6.4273878403449780e-02  5.3425127861983050e-02  1.0184848919826817e-01  4.9471163314113040e-02  9.0684208350022721e-02  1.3523923792036496e-01 
-4.2769332619476054e-02 -6.3616391577496989e-02 -6.7480975642446914e-02 -7.9608832450970571e-02 -8.6514971163392212e-02 -9.2742817917448664e-02 
 1.8738692152417896e-02  7.8353355234610608e-02  2.7064772719575258e-02  1.3433910615710018e-01  9.1010124104464171e-02  3.0058473534730016e-02 
-3.0141787431212808e-01 -3.0035122908563561e-01 -2.8288113085191391e-01 -2.9666185346544599e-01 -2.7847525073227702e-01 -2.6007031506445860e-01 
-2.7106684509419221e-01 -2.8348658363352786e-01 -2.9484420168587189e-01 -2.9299643078852383e-01 -3.0465497774388817e-01 -3.1553334871035144e-01 
-3.4382786234080581e-01 -3.3923357577956115e-01 -3.3117619148895888e-01 -3.3221872913104272e-01 -3.2436840316110671e-01 -3.1553336595715747e-01 
-1.3200830809598310e-01 -1.4840886245843946e-01 -1.5823309427624796e-01 -1.6221756140818891e-01 -1.7314043754312008e-01 -1.8408889226284766e-01 
-3.0554701354246794e-01 -2.9450292956304569e-01 -2.8163157465157818e-01 -2.7701222132516778e-01 -2.7366361118073701e-01 -2.6499624749586420e-01 
-7.4995710880505440e-02 -2.2160514598603333e-02 -6.4019220599367002e-02 -1.7412958931350325e-06 -9.4834604000929134e-07  2.2600625651663855e-06 
-2.5477420964986031e-01 -2.7571013686019957e-01 -2.7095248751026579e-01 -2.9362612019074852e-01 -2.9169464902168163e-01 -2.8712215652452788e-01 
 2.9001284788643205e-02  2.0066986659870961e-03  6.7404970386549246e-02 -1.6673825634250121e-02  3.9521346321976715e-02  1.0239398303954182e-01 
 3.1138561669784393e-01  3.3197765509022675e-01  3.0995327234098630e-01  3.4982393501230680e-01  3.2984671726758413e-01  3.0718341779506653e-01 
 8.8716695491845771e-02  6.4018459821107446e-02  2.6170219461960804e-02 -2.1560647229459792e-06 -1.9257626018511584e-06 -6.0244892021115594e-07 
-8.6303114951258045e-02 -7.4620239480933950e-02 -1.1232768566053743e-01 -6.3493763929090813e-02 -1.0009163549178401e-01 -1.3644640146931705e-01 
 5.1234547100357117e-02  1.2134116598793500e-01  2.2044257871529617e-02  1.7848124083824565e-01  9.7460654642935407e-02 -9.8675915153599910e-03 
-3.6419716976159711e-01 -3.7092515097302864e-01 -3.5617799209026724e-01 -3.7491526331236530e-01 -3.6224599344754316e-01 -3.4645453601204795e-01 
 2.4782766013699822e-01  1.5523225119426387e-01  1.4727242263290133e-01 -9.3967935061876639e-07  3.0718779147995626e-06 -2.1186861583049053e-06 
-3.4097321470911257e-01 -3.3411624384115218e-01 -3.4162068239688181e-01 -3.2519653021175704e-01 -3.3259293371803145e-01 -3.3837014581936681e-01 
-2.0828201967225596e-02 -3.3170343564812986e-02  1.3467723630977740e-02 -4.5325964785946755e-02  4.5746939941156278e-03  4.7555798358413004e-02 
-1.6375833176550739e-01 -1.7404322868826691e-01 -1.2319479917559142e-01 -1.8432228751186958e-01 -1.3918137094657745e-01 -8.7271842546537359e-02 
-2.5285630157330347e-01 -2.5773326243191669e-01 -2.3336576218385022e-01 -2.5656159133593626e-01 -2.4097408733117281e-01 -2.2073229516137507e-01 
-6.3493772780157720e-02 -5.3884611242351006e-02 -8.9982070336932424e-02 -4.4830296632659868e-02 -7.9643998674646097e-02 -1.1449487770833411e-01 
 1.9569717923151217e-01  2.0573227190676427e-01  2.2736960193038869e-01  2.1711148152430790e-01  2.3743194212994492e-01  2.5403079636300496e-01 
 2.5503309639622790e-01  1.6094354866038277e-01  1.5307243204213672e-01 -2.3004980965661468e-06  5.3699245150167824e-06 -3.2863354976360194e-06 
-8.3924439123828895e-02 -1.1693543994764453e-01 -8.3187365711408237e-02 -1.4440501391297264e-01 -1.1170410686575941e-01 -7.9799179753146349e-02 
-3.2827837417488612e-02 -2.2683117814225807e-02 -1.4919645437768768e-02 -1.2132812910864857e-02 -9.2763925355669220e-03  2.9320049078091257e-09 
-1.5272092858602779e-01 -1.4225815432976588e-01 -1.6959428444735819e-01 -1.3200830078378914e-01 -1.5823310034951538e-01 -1.8408888493836562e-01 
-2.2605008082620931e-01 -1.3022976972536812e-01 -1.3710485275347536e-01  2.0114186400211726e-06 -2.7748321392436375e-06 -1.9974401161771443e-07 
-3.8075241696763262e-01 -3.8576881313690176e-01 -3.7566780849960640e-01 -3.8773485746981706e-01 -3.7810092947647145e-01 -3.6631497180864320e-01 
-3.8741895537072679e-01 -3.8783556762096105e-01 -3.4480538445871611e-01 -3.7908110443744897e-01 -3.4640852482587942e-01 -3.1048206230559838e-01 
 4.6180897757270634e-02  2.8204964207183110e-02  6.3485138900004123e-02 -4.2134365250754548e-08  3.4935915426440409e-02  7.5884521248252124e-02 
-8.1054198225370841e-02 -4.8054774626544450e-02 -3.7280036472620584e-02  3.5759034536080952e-08 -3.9602120143600982e-07  3.5501774392974199e-07 
 1.8089074886079551e-01  2.1482205322784401e-01  1.8967799590395884e-01  2.4495864978147566e-01  2.2026315117382170e-01  1.8302971145517466e-01 
 3.0021057939496010e-01  3.1425661863372711e-01  3.2315607064665447e-01  3.2598087302220208e-01  3.3615180361162966e-01  3.4333072745599635e-01 
 6.4308776500165510e-01  5.6853364624296709e-01  4.7680260248289486e-01  4.8975212634295745e-01  4.0943414620972723e-01  3.3491401531496273e-01 
-1.7172711597186019e-01 -1.6223598175586953e-01 -1.9061039906133764e-01 -1.5272091474496163e-01 -1.8015409387319345e-01 -2.0687526247061411e-01 
-3.1931216376823662e-01 -3.3731207340444835e-01 -3.3637383560292189e-01 -3.5083862843126240e-01 -3.5248070062588865e-01 -3.5233956224776275e-01 
-3.1095791802702687e-02 -8.2137164398983054e-02 -5.1233509094464016e-02 -1.2708080872806626e-01 -1.0056086187687187e-01 -7.2518832933993693e-02 
 2.2096744499664261e-01  2.1820260456702917e-01  1.9176383132580194e-01  2.1450196619450004e-01  1.8901982294402259e-01  1.6117661308939266e-01 
-2.0377121407990759e-01 -1.8786662884967278e-01 -2.2752525412834482e-01 -1.7152438690075134e-01 -2.1464096766642707e-01 -2.4983837857560337e-01 
 7.5024599695579133e-02  3.4329520420649975e-02  4.3865684812018316e-02 -4.2068203977885401e-07  4.4211995441679710e-07 -4.5277720268182020e-08 
-8.6060670405367287e-02 -1.3989214399048591e-01 -8.4674197584687430e-02 -2.0693367923727443e-01 -1.3216170261401924e-01 -7.1453348035367500e-02 
 4.9459190232374911e-02  5.3518300467911305e-02  5.2795675649091996e-02  5.8085599084909859e-02  6.0041741988222819e-02  6.1077791734753764e-02 
-2.5969102778209555e-03  6.3218085724210471e-03 -2.4311148517918296e-03  1.7816911962648178e-02  9.5821278784303573e-03 -1.5316466708431625e-03 
-9.7640058435594507e-02 -8.5883846707460812e-02 -7.2813865548722462e-02 -7.1998603343140025e-02 -6.2618101852087174e-02 -4.8147661335944225e-02 
-9.6979984058051902e-02 -9.5103705227936861e-02 -7.1012768324224554e-02 -8.7541765905979521e-02 -6.5424954320363743e-02 -4.6477462794729703e-02 
 1.0504744376251172e-01  7.9428335698005031e-02  6.8767982161508312e-02  5.7269488358331427e-02  4.8757371598483548e-02  3.7429187743549412e-02 
-1.8808460593600523e-01 -2.2615745459757036e-01 -2.1095533226781751e-01 -2.6808317078200955e-01 -2.5239192616396611e-01 -2.3385491076587309e-01 
 7.9832677045421380e-02  1.2846928547645239e-01  9.0303711018535585e-02  1.7010239842897909e-01  1.3645192585638208e-01  1.0103147453454100e-01 
 2.7522703507732310e-01  2.9392114026735672e-01  2.9226303058459890e-01  3.1138563643106232e-01  3.0995325145167302e-01  3.0718341527937587e-01 
-2.8351246880993330e-01 -2.7946799777684855e-01 -2.6610535604067581e-01 -2.7242613815117794e-01 -2.5856940538584672e-01 -2.4478838021323235e-01 
-2.0991166763353825e-01 -1.5111481544606484e-01 -2.1959324369845695e-01 -9.6827045913373905e-02 -1.5106149489953319e-01 -2.2356690164499712e-01 
 1.4910255951706206e-01  1.7938571445957635e-01  1.7866195393472645e-01  2.0948471240548974e-01  2.0779858633652956e-01  2.0570944749286563e-01 
-1.6447414134559032e-01 -2.1623743379676899e-01 -1.4263680702869497e-01 -2.7200948910845651e-01 -1.9077682102962118e-01 -1.1812191214527319e-01 
-1.4887202178720060e-01 -1.4189000795417259e-01 -1.7328427920820186e-01 -1.3450097573894187e-01 -1.6595119555865223e-01 -1.9641842680692165e-01 
-1.3072689912049937e-02  8.9345529134610101e-03  1.2322324741147540e-02  2.9643530747697079e-02  3.4057261715937176e-02  3.8261342641208368e-02 
-1.3622245343196046e-01 -1.2140356766283075e-01 -1.0950551831724649e-01 -1.0374953691636726e-01 -9.3002996365338944e-02 -8.2625476130363723e-02 
-9.6979982648983276e-02 -7.1012723924609070e-02 -7.0968101586940488e-02 -4.6477459052658300e-02 -4.9983188029652396e-02 -4.9503586601172475e-02 
 1.2590394332702709e-01  9.6885801766058474e-02  6.3653617045604141e-02  6.7807970434588430e-02  3.9125809037214500e-02  8.4649479713823032e-03 
 1.5828719912532518e-01  1.4268826655541850e-01  2.1085021281969138e-01  1.2372982129634630e-01  1.8134860563094735e-01  2.5216802297828966e-01 
-7.2976745415614996e-02 -1.4494769843080112e-02 -2.0036210800151302e-02  3.0058140435414930e-02  3.2314573896019425e-02  3.0956340220139173e-02 
-7.5599768238008597e-02 -4.4082858003289364e-02 -3.4547587591483388e-02  7.0746691979391939e-08 -4.6492539145910470e-07  2.3477520425642920e-07 
-2.4563359093694886e-01 -2.6791160944465231e-01 -2.5831121014365205e-01 -2.8780138605482780e-01 -2.8038784995811544e-01 -2.6980781071605620e-01 
-2.8841232627640251e-01 -3.0009226524890842e-01 -2.9972256901985189e-01 -3.1063435870295897e-01 -3.0942651112571445e-01 -3.0552155407375159e-01 
-1.9973476033577586e-01 -1.9588257966326672e-01 -2.2262551595627275e-01 -1.9080146468158810e-01 -2.1785108909588158e-01 -2.4342853666210520e-01 
 2.2860600578147677e-01  2.4821248613425478e-01  2.3523157363268538e-01  2.6622562479389311e-01  2.5252332961699492e-01  2.3798002430842138e-01 
-6.9042777522241294e-01 -7.8946712676285002e-01 -6.4222378328700280e-01 -8.9370806638777744e-01 -7.3343414577814359e-01 -5.9318065074793380e-01 
-1.4819544726362573e-02 -2.3602360863861464e-02  3.3451117347759775e-02 -3.0155649223351538e-02  2.8679956198067513e-02  7.9832684126700429e-02 
-9.7640065120661354e-02 -9.2669484175661648e-02 -1.1714501672578853e-01 -8.2745196723515782e-02 -1.1090851084968875e-01 -1.3565480584850029e-01 
 1.3837847708285987e-02  5.9245922262858098e-03  3.6729118306455685e-02 -3.7194639812797906e-03  2.9227292304913294e-02  6.2989086130504801e-02 
-3.3837019312628092e-01 -3.3259287460980841e-01 -3.2702035454122724e-01 -3.2519656992860102e-01 -3.2153108888798476e-01 -3.1360032026849127e-01 
-3.2025822687675821e-02 -2.8135248237725289e-02 -4.2888962184607866e-02 -2.1811863388957364e-02 -3.5852858477362547e-02 -5.1872599599016168e-02 
-3.9844265476607188e-02 -9.4472751488637097e-02  1.8880516443391016e-03 -1.4475089768016067e-01 -6.0113308927594894e-02  5.0999336569534981e-02 
 3.0489761832766077e-01  3.1832193715403612e-01  3.0574015484420891e-01  3.2818742915020788e-01  3.1646899057703703e-01  3.0370804755595293e-01 
-2.0926756035171433e-02 -9.9485821113468684e-03 -4.0544315975375313e-02 -1.3136802670138763e-03 -3.2171432615524014e-02 -6.0922923050156244e-02 
 4.1549143272130801e-01  3.2875797567674109e-01  2.6595859496070795e-01  2.4950435280174613e-01  1.9967476688355931e-01  1.4537953938787063e-01 
 7.5884349928034250e-02  3.4935798485485087e-02  4.5168640085882658e-02 -3.4934140466099565e-07  3.0676933809715025e-07 -8.1898172474327570e-09 
-4.6963249384827897e-02 -5.0617616891257641e-02 -5.1801114710045511e-02 -5.3835240040489861e-02 -5.2086180420596782e-02 -5.7910620010363435e-02 
-3.7997258146671453e-01 -3.8936216802445356e-01 -3.8224183432032582e-01 -3.9538664773315030e-01 -3.8917197314725782e-01 -3.8075238888180557e-01 
-3.0552152459230464e-01 -3.1108835387699418e-01 -2.9715545390110604e-01 -3.1135487603839646e-01 -2.9778675285396883e-01 -2.8351238960224490e-01 
 3.3101830134436883e-01  3.3104549532445182e-01  3.1853318733930786e-01  3.2818743367043318e-01  3.1832194111142059e-01  3.0489761578986918e-01 
-1.4227986009996063e-01 -1.1305678251530558e-01 -1.1966832782993295e-01 -8.8112782704117126e-02 -9.3874950456757061e-02 -9.5874412383795335e-02 
-1.6221756932874756e-01 -1.4913024452195039e-01 -1.7429165263006510e-01 -1.3638776322393240e-01 -1.6026350267073225e-01 -1.8369320336511100e-01 
 1.4710207888898019e-01  1.2574314814761939e-01  1.0242371952136138e-01  1.0504744280970062e-01  8.5963985737741416e-02  6.2989071911819766e-02 
 1.7816905826312453e-02  3.2721692022148890e-02  2.3249167156772978e-02  5.0286722051258288e-02  3.9944752005159644e-02  2.7737811780540401e-02 
 1.3929834421346859e-01  1.6776469348460160e-01  1.7078484691032700e-01  1.9550967899014943e-01  1.9687692658081607e-01  1.9653254552752220e-01 
-3.2850043384738198e-01 -3.1107158072698438e-01 -3.1225466745063485e-01 -2.9164949058485734e-01 -2.9279830039322913e-01 -2.9147990047702993e-01 
 6.6234198209676270e-02  8.5940545845817687e-02  7.8673364550687741e-02  1.0695200820181923e-01  9.8751371705075822e-02  8.9022790636779703e-02 
 5.9269097017993010e-02  8.8227374328958191e-02  9.5911398701146351e-03  1.0706559773302547e-01  4.4668426444032468e-02 -3.9832611121250222e-02 
-2.5755199782118177e-01 -2.5282027536247920e-01 -2.4149908179829149e-01 -2.4478844067576103e-01 -2.3234880712677475e-01 -2.2146222985570282e-01 
-5.0114882001514915e-01 -4.3990795309497477e-01 -5.2278658908996789e-01 -3.7766279486941295e-01 -4.5277714535921376e-01 -5.4146376226609572e-01 
 1.2487125567057147e-01  9.9160839464762479e-02  8.9286976069371984e-02  7.3514494361896499e-02  6.8409179523647279e-02  6.1186723975631463e-02 
-2.5477420701490516e-01 -2.5908478174264710e-01 -2.7571013455333004e-01 -2.6078795556496470e-01 -2.7730917089708357e-01 -2.9362611251870657e-01 
 5.8994587586119106e-02  9.0232401773415544e-02  9.3094492585805252e-02  1.2089045402773491e-01  1.2137159865480590e-01  1.2117114685899338e-01 
 5.8383077584786336e-01  4.4396838043734188e-01  5.3758643182206822e-01  3.2288593185486264e-01  4.0565654940676765e-01  4.8975198417058835e-01 
-8.7541755655393003e-02 -8.1199226351272746e-02 -5.8131379022222311e-02 -7.1226982079519566e-02 -4.9708233569884602e-02 -3.1212645743335675e-02 
 2.5755979004597612e-01  2.4602246524983032e-01  2.5731289067634444e-01  2.3117338224675546e-01  2.4173315894500846e-01  2.5403081543441414e-01 
 1.7588734678667825e-01  1.7943165006014897e-01  2.0405591731150952e-01  1.8238461170052972e-01  2.0887628407348729e-01  2.3039776895987718e-01 
-2.3105932446776464e-01 -2.1772810162939363e-01 -2.4952485733464747e-01 -2.0451541333360881e-01 -2.3616703205419495e-01 -2.6593302763417076e-01 
 2.2860600693864025e-01  2.4030705319092882e-01  2.4821248189179443e-01  2.5134367926114010e-01  2.6070256800590552e-01  2.6622562666716898e-01 
 6.5800407214164053e-02  8.1687287693376395e-02  6.3694912840899814e-02  9.5379609065775542e-02  7.7714913853663886e-02  6.1099100357060281e-02 
 1.6530905363584300e-01  1.5386718110193293e-01  9.4390366557354916e-02  1.3897709181443291e-01  7.6830669472405841e-02  2.9001363508271271e-02 
-1.1075593384054484e-01 -1.2956622595266784e-01 -1.3134613610541859e-01 -1.4765945199618424e-01 -1.5109780071340040e-01 -1.5179318943162634e-01 
 5.7482041513333158e-02  4.9126458768403596e-02  7.3476062883245805e-02  3.7929187516541667e-02  6.2037974761803796e-02  9.0508764429835228e-02 
-2.8609387670645570e-01 -2.3678045200415956e-01 -3.4133302057546594e-01 -1.8233251177962626e-01 -2.8561126430375144e-01 -4.0616706972585231e-01 
-6.7354938253621030e-02 -6.5474178302480202e-02 -9.2966357936238656e-02 -6.2939411681471047e-02 -8.8055287451418551e-02 -1.1425964312699304e-01 
 2.7718282327880128e-01  2.9140913421101949e-01  2.9191077266047716e-01  3.0489763664646152e-01  3.0574015392462633e-01  3.0370806324939459e-01 
-9.1296211982106884e-02 -1.0592659559631543e-01 -5.6122168756019303e-02 -1.2031173930053854e-01 -6.7120317627668555e-02 -2.0828203618955453e-02 
 2.7718280839950510e-01  2.7590013886955556e-01  2.9140914730595674e-01  2.7183426777349484e-01  2.8956885822230460e-01  3.0489762330693909e-01 
-1.6384260307196283e-01 -1.3896058705922776e-01 -1.7870203583727140e-01 -1.1320867825984011e-01 -1.5854984301950981e-01 -1.9465039427256423e-01 
 5.2433699633521562e-02 -1.2306751002124442e-02  4.1863407102856867e-02 -8.8008210136420920e-02 -2.0574052530637186e-02  3.0956854982649828e-02 
-6.1843935309361740e-02 -6.4971076385111598e-02 -9.3083405310525807e-02 -6.7354928173210704e-02 -9.3143426918885830e-02 -1.1940263590660637e-01 
 7.2678134480020556e-02  1.0408790288243168e-01  3.2519580792490600e-02  1.3248415251129986e-01  5.8804764049705444e-02 -5.8281864725802414e-03 
 7.5056529783048942e-02  8.2995199783528664e-02  1.1439558928727504e-01  9.6187881856767549e-02  1.2523419775439973e-01  1.5000117817531528e-01 
-5.4315122385519121e-03 -2.1072715272676602e-02 -6.8951476779207013e-03 -3.2277592463361100e-02 -1.7883925777066496e-02 -6.9049779181797411e-03 
-2.0935468279794373e-01 -1.9655216329606501e-01 -2.2006568125390907e-01 -1.8369320436017031e-01 -2.0628315378241230e-01 -2.2756164178863389e-01 
-2.5204939582642455e-01 -2.4007422136922238e-01 -2.6252211910276202e-01 -2.2756163449597078e-01 -2.4939148182459964e-01 -2.6926691769662320e-01 
 1.0023753449797864e-02  3.8182053395950544e-02  4.8864877897446438e-02  6.7807971375109369e-02  8.0549063850108446e-02  8.9164314504891207e-02 
-2.2786419652429801e-01 -2.0041576994361976e-01 -2.1746898872635148e-01 -1.7172711329231166e-01 -1.9061040860829986e-01 -2.0687526093764233e-01 
-1.6164104738424134e-01 -1.4885847786479206e-01 -1.8424008759218469e-01 -1.3644639677047304e-01 -1.7101724675428731e-01 -2.0451540660992357e-01 
-2.4078513098796561e-01 -2.2341851161183307e-01 -2.4893861133795103e-01 -2.0637278718024016e-01 -2.3174327756574065e-01 -2.5477420463862877e-01 
 7.0060573417266125e-01  8.0102151663585441e-01  6.7545104486942986e-01  9.1190835940335047e-01  7.7255333762061629e-01  6.4308778739605721e-01 
-1.7851163606533954e-01 -1.1620852231277723e-01 -9.6398612581461041e-02  8.7772642066469777e-07  7.9022925007856959e-07 -1.1735547539163401e-06 
 1.5665447966341783e-01  1.8252925046342772e-01  1.9301368900887353e-01  2.0413476854699866e-01  2.1274397072332263e-01  2.2711747291748829e-01 
-3.6631500809164502e-01 -3.6603418107420649e-01 -3.5207135042902438e-01 -3.6348085035749927e-01 -3.4948415521781490e-01 -3.3338574250324621e-01 
-2.2882095836994512e-01 -2.2068741377168571e-01 -2.6441553089259717e-01 -1.8834314374682470e-01 -2.5115311566707738e-01 -2.9097288478967592e-01 
-8.7271623955133062e-02 -3.5511466621947312e-02 -8.9489844275797814e-02  1.8738448847619819e-02 -3.4135157381851258e-02 -9.8415723964961441e-02 
-4.9503585483495503e-02 -4.9983176892554167e-02 -3.2065489600609828e-02 -4.6477472654318737e-02 -2.9413031061915867e-02 -1.6060814270511859e-02 
-1.3460012027063067e-02  2.5568884529594427e-02 -4.5211037535211815e-03  6.4104800546737187e-02  3.3962041783254841e-02  4.1963068696133695e-03 
 1.6943043852024494e-02  3.6882716836367561e-02 -1.1127725140645854e-02  4.0234592057358368e-02  1.1454423457513465e-02 -2.9143536168880720e-02 
-2.2380178263661805e-02 -5.0926815404545599e-02 -1.6950214391397708e-02 -8.1054592067656153e-02 -3.7280286495063326e-02  1.7767045601939680e-08 
 1.9550967522182089e-01  2.2511530598214979e-01  1.9687689829635319e-01  2.4965702546822463e-01  2.2363469665309374e-01  1.9653254915775425e-01 
 2.0921685044854393e-01  1.7723243464254654e-01  1.6037969199028598e-01  1.4710208404159505e-01  1.3341184421822549e-01  1.1671732869074129e-01 
-7.6315401415466944e-02 -4.4178115229216115e-02 -5.6824355613697509e-02 -1.5990855325507002e-02 -2.9372676163207677e-02 -3.9910676681718119e-02 
-1.9465038060956127e-01 -1.7669581186057531e-01 -2.1161107520516240e-01 -1.5776310782971728e-01 -1.9749821049801369e-01 -2.2906730052906613e-01 
-1.2132790726761249e-02 -1.0180729780994555e-03 -3.2823557966617256e-03  1.1451147527953842e-02  3.1249238107855736e-03 -7.5589174643726745e-09 
-2.9669978869245509e-02 -4.8651516275115506e-02 -4.5106630875138318e-02 -6.5336121298507160e-02 -6.5606693401388541e-02 -6.2939410978985227e-02 
-3.3606141727412286e-01 -2.7282812092311742e-01 -2.6828998672183951e-01 -2.1292184141161558e-01 -2.1753331136977949e-01 -2.0693366044864292e-01 
-2.8190668021590256e-02 -4.7420354589940254e-02 -1.7018582097388435e-02 -6.7354913578332398e-02 -3.8169201269532833e-02 -3.7194676605207607e-03 
-5.8281848901627189e-03 -6.5933429163863078e-02 -3.0517022638485727e-02 -1.1731780578855998e-01 -8.7512122764265149e-02 -5.6890630343893314e-02 
 5.8963986795606084e-02  1.0948937066201873e-01  6.8884709265753769e-02  1.5313433440002933e-01  1.1770346833322466e-01  7.9832663900442413e-02 
 4.0234985577223971e-02  2.5800965722068851e-02  1.2537098198993939e-02  1.0716707035031601e-03  4.0111725921708350e-06 -4.1563462554267674e-03 
 6.3173842373923692e-02  4.9136755973629521e-02  9.3819073434271455e-02  3.3910895576003713e-02  8.2652562114219910e-02  1.2443472878816979e-01 
-6.9761081161514069e-02 -2.0157454330579989e-02 -7.3222776901032405e-02  2.3995372476121168e-02 -2.3863581140000541e-02 -7.3800441820754195e-02 
-6.7010340671012625e-01 -5.0702320363186371e-01 -6.2054648872964480e-01 -3.6693534160736191e-01 -4.6137499832524220e-01 -5.6387418434621572e-01 
 2.8539690444567001e-01  2.9412581663106757e-01  2.9875556519814539e-01  3.0160970305023338e-01  3.0932630417130885e-01  3.1117093225005799e-01 
-1.8329936713419231e-02 -1.5318096985884003e-02 -9.4564864415967623e-04 -1.2019475656246677e-02 -1.9461486466625883e-03  1.1820635543990363e-02 
-5.1445222020408798e-02 -3.1711863130187284e-02 -3.4070190199057250e-02 -1.4570904010482066e-02 -1.9069471629582748e-02 -2.0331663151477684e-02 
-5.3594727101560470e-02 -7.5936851938355004e-02 -8.1201664734715434e-02 -9.6213185049241950e-02 -1.0265328002628961e-01 -1.0915430470477452e-01 
 7.5816531541767107e-01  6.1634850846962386e-01  7.0044243606253409e-01  4.8975196893150164e-01  5.6853361064186680e-01  6.4308774771884802e-01 
-1.3848397268902751e-02 -3.0505947041507128e-03 -1.4765699764987296e-02  9.5531490958209245e-03 -1.2852014494750613e-03 -1.4419067907657679e-02 
-3.8459054025761857e-02 -7.2616344575412453e-02 -1.0468182887508077e-02 -1.1027987082455450e-01 -4.8813623991243220e-02  3.2324201421356412e-02 
 9.9470441302020346e-02  8.8918346514040250e-02  5.0831112998818546e-02  7.5024882456241615e-02  4.3865534342216128e-02  2.6429483469003857e-08 
 2.0564533933054405e-01  2.1884994506009961e-01  1.9584244263955347e-01  2.2860600182189064e-01  2.0744465822251193e-01  1.8534638289158900e-01 
 3.1138560772018881e-01  2.8947033659514787e-01  3.0698669679268448e-01  2.6510006675801617e-01  2.8353196855207147e-01  3.0021061321863979e-01 
 4.7305702033905855e-03  6.5537654886777041e-02 -2.2847005175951660e-02  1.2370775976260356e-01  4.3179766773682147e-02 -5.8046045133303532e-02 
 1.8546879647740536e-01  2.2025702628919649e-01  1.9108000541275544e-01  2.4945168425047939e-01  2.2322980415679244e-01  1.9550966080879034e-01 
-4.1448732289324740e-02 -3.4433337740752107e-02 -4.1800614438552423e-02 -2.9385283748480075e-02 -3.7072573378733001e-02 -4.3482413665514016e-02 
-1.4475092505068546e-01 -1.8629590895894130e-01 -9.7728235515818010e-02 -2.2075418634275035e-01 -1.4489032374817368e-01 -4.0033729518010271e-02 
 2.0457309151696226e-01  1.7701324192513693e-01  2.2942117971511256e-01  1.4571679665543652e-01  2.0301381359252674e-01  2.5117864070770063e-01 
 2.3659129571323764e-01  2.0582224050929956e-01  1.9395400779188374e-01  1.7144315693013085e-01  1.5997287402515856e-01  1.5065064249507393e-01 
 9.1407145439630869e-02  1.2119847866487102e-01  8.8387095495734980e-02  1.4910255762282476e-01  1.1699744488216639e-01  8.5360345902541074e-02 
 2.0397547618547818e-01  2.3851987194508281e-01  2.0523628702216584e-01  2.6203312745530349e-01  2.3392970348199066e-01  2.0914758055796467e-01 
-4.4830304597908731e-02 -3.6891521144139634e-02 -7.0962050232965465e-02 -2.9482002059496585e-02 -6.2153093231316410e-02 -9.5104155066988924e-02 
 1.6520709130781952e-01  1.6763594725082587e-01  1.9981628851266836e-01  1.7144304930141419e-01  2.0148642080788340e-01  2.3216689862636383e-01 
-1.8870970852587818e-01 -1.5499287484945917e-01 -1.3697474743698868e-01 -1.2031175015141456e-01 -1.0592657225638610e-01 -9.1296218124919434e-02 
 7.2131961046064097e-01  6.1560384551820668e-01  6.7677522553559333e-01  5.1719936292976376e-01  5.7794349975036874e-01  6.3213501994627008e-01 
 3.1138559456635134e-01  3.0698670139700801e-01  3.2849303505683247e-01  3.0021059701144925e-01  3.2315600569593239e-01  3.4333074892948584e-01 
-1.0915428923976506e-01 -1.0265328750819057e-01 -1.3225066606782906e-01 -9.6213177144205936e-02 -1.2450985664613183e-01 -1.5272092382562374e-01 
 2.5028897603845746e-01  2.6466247875397952e-01  2.7626493083611792e-01  2.7709116384247495e-01  2.9012939647194474e-01  3.0021059206377715e-01 
-1.1043723842088517e-01 -6.6294766449824308e-02 -9.6657582792383651e-02 -2.5365421988992509e-02 -5.4906489594948926e-02 -8.1894076246379732e-02 
 1.5956726282387526e-01  1.7741428326956460e-01  1.2452644096563033e-01  1.8450803096834495e-01  1.3918108234065679e-01  8.8714047677168395e-02 
 1.0191510330142174e-01  1.3096597456319525e-01  1.0195142912023360e-01  1.5825359973006717e-01  1.2991196323082221e-01  1.0151686877737225e-01 
 2.0615323814720912e-01  2.1911983333633894e-01  2.3310345906081389e-01  2.2929214618226279e-01  2.3880534099558767e-01  2.4935909591219890e-01 
-1.5179318999007166e-01 -1.4551363538432657e-01 -1.2962911839925109e-01 -1.3622245637185249e-01 -1.2130161520618732e-01 -1.0665571146551327e-01 
 1.3721668614157556e-01  1.6742126316461017e-01  1.2607148065559667e-01  1.9441234460566623e-01  1.5961801929710467e-01  1.1677806687585589e-01 
-1.6804468099373732e-01 -1.2710277405212991e-01 -1.4021569940800577e-01 -8.6641754667940080e-02 -9.6458031715036335e-02 -1.0974046804630530e-01 
 4.0822523320959515e-02  9.4063324126129860e-02  4.9009374659934067e-02  1.4008646980091918e-01  1.0127713724780545e-01  5.8963973058911906e-02 
 3.3572666219179642e-01  3.2706737767437272e-01  3.3436106020855966e-01  3.1693284142223432e-01  3.2403569150427441e-01  3.2818742992013133e-01 
-2.9297699236383407e-01 -2.9168794962965250e-01 -2.7587881280342613e-01 -2.8780139618886047e-01 -2.7288855635424825e-01 -2.5645207780248319e-01 
-2.5755200579792503e-01 -2.7022377218880850e-01 -2.5282033930763143e-01 -2.8351251962008200e-01 -2.6610531548523236e-01 -2.4478844234014244e-01 
-2.1811862361505275e-02 -1.2774405136900818e-02 -2.6744040112571914e-02 -1.5316508075549915e-03 -1.5225784959612554e-02 -3.0768481312079810e-02 
-3.2519656823178017e-01 -3.1564020399258763e-01 -3.1361053793749838e-01 -3.0444457699375099e-01 -3.0425349368258264e-01 -2.9992216879081279e-01 
-2.0935467613503128e-01 -2.2006568535683677e-01 -2.3128890705492403e-01 -2.2756163230940385e-01 -2.4007421224505973e-01 -2.5204940901099587e-01 
 1.2257597175987385e-01  1.4958393424351921e-01  1.4897032355246365e-01  1.7342108211019319e-01  1.7675175501203030e-01  1.7542977076301386e-01 
-3.0497271063513637e-01 -2.8562531300274996e-01 -2.9640621020363234e-01 -2.6343916824903180e-01 -2.7366073990708811e-01 -2.8202250199814638e-01 
 1.9187639203856712e-02  6.6331108387807258e-02  2.4264505154876003e-02  1.0710994410750407e-01  6.9773235136918660e-02  3.0555164281748159e-02 
-2.0687527009948622e-01 -1.8015408336386052e-01 -1.9548902593150250e-01 -1.5272092597507048e-01 -1.6959429037102972e-01 -1.8408888132529244e-01 
-1.3644641222258858e-01 -1.0009162657995528e-01 -1.2525261542432109e-01 -6.3493776149421102e-02 -8.9982074567567030e-02 -1.1449487958757044e-01 
 1.2117115675491363e-01  1.2137156458780819e-01  1.4887310615021068e-01  1.2089046286570930e-01  1.5100559235396929e-01  1.7588734416841695e-01 
-5.3594724593882870e-02 -4.7899189177860499e-02 -7.5936845773792644e-02 -4.2506807342884860e-02 -6.9164887074952094e-02 -9.6213184257636447e-02 
 1.3150654640811385e-01  7.1610094891606815e-02  1.3969731805265378e-01  1.2046995125361231e-07  7.8924420395854719e-02  1.4571674150813585e-01 
 1.5047242920553910e-01  1.7827372375009914e-01  1.6966528218686008e-01  2.0564535510296772e-01  1.9584242529012244e-01  1.8534638872218923e-01 
-1.2050543802052011e-01 -1.4195453897528720e-01 -1.0045955238980564e-01 -1.6160845001635665e-01 -1.2410966858936495e-01 -8.5674802891350960e-02 