<VTKFile type="UnstructuredGrid" version="1.0" byte_order="LittleEndian" header_type="UInt64">
<UnstructuredGrid>
<Piece NumberOfPoints="7326" NumberOfCells="4884">
<PointData>
<DataArray type="Float64" Name="τxy" NumberOfComponents="1" format="ascii">
 1.6293232056443557e-01  1.9894346416204436e-01  1.7144886617072547e-01  2.3143699430963471e-01  2.0833843545355948e-01  1.6923449105511146e-01 
 1.8382010595729750e-01  1.4510123502703315e-01  1.4383402626918282e-01  1.0741235255615784e-01  1.0033580976197359e-01  9.4634919364945808e-02 
-3.8765462600213602e-01 -3.9315738847717469e-01 -3.9662732289335245e-01 -3.9736248604031665e-01 -4.0069724440932047e-01 -4.0222706523084711e-01 
-7.5566113108979246e-02 -8.7041884054443366e-02 -4.5360420711605516e-02 -8.9875080503148269e-02 -4.2122977918314063e-02 -1.3785019417068045e-04 
-1.7723007394030943e-01 -1.6336908006177428e-01 -1.5195689653540573e-01 -1.4573493570106097e-01 -1.3635831470629536e-01 -1.2632004644257949e-01 
-1.8820797544174503e-01 -1.9322909007477415e-01 -2.1861931909692645e-01 -1.9602386938266317e-01 -2.2240970675678781e-01 -2.4539149124707438e-01 
-4.7291866156715123e-01 -5.1575667497582978e-01 -5.8031916135463379e-01 -5.5519448790157466e-01 -6.3203452490487022e-01 -7.0533095231610665e-01 
-1.0628132107115582e-01 -5.8290135299659859e-02 -6.8240206938559367e-02 -1.4683889014312133e-03 -1.6264272882222462e-02 -3.1741925781349052e-02 
-2.5263552765797287e-01 -2.5030320459376232e-01 -2.7349421547934033e-01 -2.4778073444689808e-01 -2.7134554750585865e-01 -2.9120410212793368e-01 
 2.4415109097061347e-01  2.0883117927859829e-01  2.4019072895616408e-01  1.7144311184010783e-01  2.0582231448835459e-01  2.3659130286685529e-01 
 7.3463256819764997e-02  4.8701524205287838e-02  2.6431157364598036e-02  1.5947737444589313e-02 -1.7369867151517436e-03 -2.1865244488156341e-02 
-1.7723007296440871e-01 -1.5195687323256069e-01 -1.6282427178425027e-01 -1.2632004406257610e-01 -1.3856869378123177e-01 -1.4762507162431021e-01 
-4.7718305450013647e-03 -1.0608035785861085e-02 -3.5867117853150606e-03 -1.8493665608725229e-02 -8.0294424424546904e-03  8.8689962530944194e-04 
 1.7683882449334989e-01  1.6637506702351915e-01  1.3844929601935138e-01  1.5515724584992413e-01  1.2970216251362143e-01  1.0504744454830109e-01 
-3.7174266826648028e-01 -3.8064710583137323e-01 -3.6725517642076577e-01 -3.8827463876353580e-01 -3.7624823728326418e-01 -3.6103830895387734e-01 
-1.7142195622906531e-01 -2.1226916052706560e-01 -1.4603346620164959e-01 -2.5482204285475529e-01 -1.8276019791096124e-01 -1.1784675379851098e-01 
-2.6199171948704342e-01 -2.4680328830930576e-01 -2.4240253433745232e-01 -2.2987995139547002e-01 -2.2632996858907450e-01 -2.2198127438937026e-01 
-2.0466942806007524e-01 -2.1856040631968288e-01 -2.7301692262059529e-01 -2.2931991830203213e-01 -2.8625540323558729e-01 -3.4774655667069426e-01 
 4.0239833525128310e-01  3.9908092554918406e-01  3.9847105474723016e-01  3.9145411873620778e-01  3.9342624984010033e-01  3.9232239793782059e-01 
-3.4610861631262557e-01 -3.2402380192784208e-01 -3.8307988952357608e-01 -3.0067427403944336e-01 -3.5743660104306435e-01 -4.2018135032161630e-01 
 2.8555495923365298e-01  2.7736388245830840e-01  2.9278755023710784e-01  2.6678108623652586e-01  2.8184513791551857e-01  2.9608192082283935e-01 
-2.0466938313067110e-01 -2.4894668297539602e-01 -1.8155429927272004e-01 -2.9562805937291275e-01 -2.2218804949481155e-01 -1.5574808543684529e-01 
-1.7543202508834385e-01 -1.5275224559660250e-01 -1.6315630807242140e-01 -1.3005070598522858e-01 -1.4074417640115086e-01 -1.4952825412898696e-01 
 2.4152849469244137e-02  3.5987339492014839e-02  1.7829139663512336e-02  4.4793646439693101e-02  2.8472069001300622e-02  1.2219298984666954e-02 
 1.7990908282757628e-01  2.2971023341694791e-01  2.4462491713337353e-01  2.8302864957407670e-01  3.0047663569978011e-01  3.1462572583656584e-01 
 1.1037755178630221e-01  7.3488271650625353e-02  7.1990919193855016e-02  4.0234915922360705e-02  3.6882260390086012e-02  1.6943530484392184e-02 
 2.6986689087878862e-01  3.1754515400709893e-01  3.1369092252678260e-01  3.6328529980550917e-01  3.6776858814885965e-01  3.6712584896160166e-01 
-1.6695353724658687e-01 -1.6271295361745883e-01 -2.0177169077552065e-01 -1.5620182358978513e-01 -1.9893755677476549e-01 -2.3399250629909435e-01 
 1.4810805916296815e-01  1.3242987273563320e-01  1.6700358467758461e-01  1.1708424126072313e-01  1.5494428314363390e-01  1.8456342975453147e-01 
 2.5834571901731079e-01  2.3876083301765677e-01  2.5611261520599637e-01  2.1832239404987702e-01  2.3673076299948773e-01  2.5106795866060150e-01 
-1.6447414646834729e-01 -2.3228606382486819e-01 -2.1623744273190273e-01 -3.0700854061510491e-01 -2.9104086520166073e-01 -2.7200951287559133e-01 
-1.8635984148866400e-01 -1.5665419542419495e-01 -1.5479822692599801e-01 -1.2137988506531461e-01 -1.2080208486834378e-01 -1.2065378043242433e-01 
 2.3701469186339014e-01  2.4461460549822919e-01  2.4777486571432641e-01  2.4321428925906413e-01  2.5391081556140249e-01  2.6266062007460417e-01 
-1.7560278338597507e-01 -1.6974717318178309e-01 -1.3916383592459319e-01 -1.6232716137422101e-01 -1.3412419964379127e-01 -9.8522759351147737e-02 
 2.4123947449876171e-01  2.4467135637838974e-01  2.1615458828096579e-01  2.4567919069664129e-01  2.1821201037484414e-01  1.8682337231771512e-01 
-3.3759207500195532e-01 -3.2386921389798190e-01 -3.9770096644322173e-01 -3.0769986478147104e-01 -3.8056612695696712e-01 -4.6060438670673937e-01 
 2.6025172130093149e-01  2.3477650914452888e-01  3.1182655249664876e-01  2.0599370365886077e-01  2.8244295434379668e-01  3.6638536318799719e-01 
 1.9044292881051261e-01  2.1723174549559193e-01  2.0946096023332161e-01  2.4352551078032314e-01  2.3481283428350810e-01  2.2582637065374805e-01 
-2.3768259040538406e-01 -2.8334752523036927e-01 -2.2243164121619921e-01 -3.3285059918565696e-01 -2.6654095841914055e-01 -2.0488827849872154e-01 
 1.7283487335947964e-01  1.4852570721361488e-01  2.1292630565280160e-01  1.2161648853379499e-01  1.8489269879215964e-01  2.5482204014485527e-01 
-1.6205393032887985e-01 -1.4301415774366186e-01 -1.4076417348045259e-01 -1.2068243917168860e-01 -1.2033248991707868e-01 -1.1940263666293238e-01 
 1.0129755895006426e-01  1.4869204481904447e-01  1.1067792594406754e-01  1.9127009109640489e-01  1.5881290004649515e-01  1.1950779682827829e-01 
 1.0051060018316693e-01  1.5348611283235214e-01  7.8253430749760780e-02  2.2098637191074200e-01  1.3308046921392747e-01  4.4436625890627288e-02 
-1.1295755429042541e-01 -1.1744164413287711e-01 -8.2436627889310110e-02 -1.1028005083081058e-01 -7.2615597832674100e-02 -3.8459325465742301e-02 
 2.8868346215638316e-02 -3.9636662619265794e-02 -7.9444863342477245e-02 -1.2138454515385876e-01 -1.6807651113233532e-01 -2.1376198916550815e-01 
 9.6187800158389569e-02  4.8050009296840904e-02  4.2547727429362206e-02 -2.5950265336591436e-03 -1.3099395724833648e-02 -2.2106099002908074e-02 
 1.3658759480074378e-01  9.9144265897746900e-02  6.3744515569294322e-02  5.9268961053508644e-02  1.9253740074971819e-02 -2.8671944217215382e-02 
-1.1970982620045496e-02  2.9512808749000901e-02  1.8636415373126523e-02  7.0186258478805719e-02  6.0465453671359908e-02  5.3859826604641683e-02 
 2.4123941114260763e-01  2.6597693314694065e-01  2.4467148177232684e-01  2.8778132184179223e-01  2.6883566086898164e-01  2.4567908094795476e-01 
 4.4800619345441529e-02  6.3152209907312976e-02  5.2699517468876838e-03  8.1555918578925468e-02  2.9530209099628134e-02 -3.2862523334405043e-02 
 1.5600001452761189e-01  1.2894472369986462e-01  1.9422583903342733e-01  9.9280822233733565e-02  1.6298509299968070e-01  2.3415064513557118e-01 
-9.8306807506931881e-02 -1.2829345643838519e-01 -1.6237908301245405e-01 -1.5574802796768017e-01 -1.9413268331881606e-01 -2.3415064430896890e-01 
 9.0026495176547719e-02  7.9815782233756030e-02  1.0204106846946101e-01  6.8459282750946024e-02  9.1124140566695627e-02  1.1326645116955146e-01 
 1.3549694199777668e-01  1.7294957356289972e-01  1.6390886030760005e-01  2.0785114853819986e-01  1.9891113967349233e-01  1.9202059585001890e-01 
-2.3107776427759430e-01 -2.5241255728570172e-01 -2.4217361724095868e-01 -2.7236693035704679e-01 -2.6385873331798121e-01 -2.5295540336959665e-01 
-3.0355065748193683e-01 -3.4469746683284869e-01 -3.0682573896301796e-01 -3.8910299830619272e-01 -3.4770581865909111e-01 -3.0730216972634294e-01 
-3.5125380598419531e-01 -3.7507458582011749e-01 -4.4423082566362887e-01 -3.9254752120561320e-01 -4.7521909242002147e-01 -5.5519459657398074e-01 
 2.3253662682881879e-01  3.0552831549514631e-01  2.3013362842244753e-01  3.9254760570018238e-01  3.0764176368116120e-01  2.2098621495093093e-01 
 2.3102817370959264e-01  2.5019580112712109e-01  2.4953771560028232e-01  2.6266063370717302e-01  2.6947089835945148e-01  2.7354361459847049e-01 
 2.8384615311136213e-01  2.6564761901954898e-01  3.4272068473195871e-01  2.4248134063051435e-01  3.1309318738135494e-01  3.9688332841421931e-01 
 1.7283491452990898e-01  2.4080818832881881e-01  1.9092765428139846e-01  3.1530346520318775e-01  2.5874956121024917e-01  2.0599367561841414e-01 
 5.5027195686431413e-02  1.1637122814390595e-01  8.9395834993020257e-02  1.8538821238309261e-01  1.5318608298232317e-01  1.2161643533693320e-01 
-4.3282908660915448e-01 -4.2269944310942892e-01 -3.9128649400452054e-01 -4.0297095792938764e-01 -3.7387374109615140e-01 -3.4904864327017737e-01 
-3.6594996803645580e-01 -3.6213557848396494e-01 -3.6334899689672440e-01 -3.5555745208399464e-01 -3.5892455258634931e-01 -3.5972085865293685e-01 
 5.8540500956074459e-01  5.3969071562290793e-01  6.0514631243336969e-01  4.9474693381773510e-01  5.5148989168835749e-01  6.1765617280943874e-01 
 3.2506555583848113e-03 -1.3779225335682959e-05  2.7416206740795931e-03 -3.6070075190585351e-03 -3.4335189200864992e-03 -5.2226689840300885e-04 
-5.7012121779335523e-01 -5.8491548197252352e-01 -5.3005827996722599e-01 -5.9227455133838502e-01 -5.3677562263943512e-01 -4.8866227926159805e-01 
 3.4478847950789027e-01  3.7138213823979205e-01  3.8247013486894299e-01  4.0297099075410980e-01  4.1518475732016197e-01  4.1907345213153940e-01 
 1.0297489749455289e-01  8.9725957518477922e-02  8.0636845242309421e-02  7.4961828041546594e-02  6.7302526255127643e-02  5.9017001229323379e-02 
 2.2546054729355539e-01  3.3192760772202723e-01  2.7778631764984113e-01  4.5440229231469587e-01  3.9661852024970484e-01  3.3491397545130369e-01 
-1.1602309579178058e-02 -1.2785350345880821e-02 -2.8045251310420359e-04 -1.3434999425907614e-02  7.7218778425195713e-04  1.2219296847509406e-02 
-1.1049764519200025e-02 -3.0195967167480353e-02 -1.3114266304539672e-02 -4.8274498110573459e-02 -3.0544862502714758e-02 -1.4419073122996730e-02 
 4.4107810543057716e-03 -3.8416007757046296e-02 -2.7488428883651196e-02 -7.5665102164341552e-02 -6.5988677476852081e-02 -5.9181373201979394e-02 
-3.1256879526372705e-01 -2.9057035721077623e-01 -3.3325197220015018e-01 -2.6808318382817697e-01 -3.0855170020699113e-01 -3.5278816989776118e-01 
-1.5918017507084228e-01 -1.8178261961468983e-01 -1.5941452451042096e-01 -2.0336352114768766e-01 -1.8093073717786323e-01 -1.5770470586419147e-01 
-2.4369291854811476e-01 -2.8714058274707471e-01 -2.5555213488759532e-01 -3.2912724650528330e-01 -3.0535637606445498e-01 -2.7092151182154467e-01 
-2.5611778222188936e-02 -1.4247568314140292e-02 -1.0991598966417229e-02 -1.2337985011293808e-03  6.3807667449566365e-04  2.0953879907442121e-03 
-3.3182638389464963e-01 -3.4182305571644706e-01 -3.4002247511608941e-01 -3.5094781015197557e-01 -3.5021697947783209e-01 -3.4527469496680063e-01 
-3.1150363004199577e-01 -3.2660722057923358e-01 -3.3356614717405486e-01 -3.4000542841809150e-01 -3.4722141925372335e-01 -3.5179866152030881e-01 
 5.2908969323405683e-03  1.4649908581309747e-02  6.6364075261789914e-03  2.6906725943160483e-02  1.4244585930033764e-02  4.7973356068347957e-03 
 2.1859583810831149e-01  2.6009734862380585e-01  2.4793089963079210e-01  3.0560434884611787e-01  2.9228923873607510e-01  2.7685005451873079e-01 
 1.4260226776884222e-01  1.2514212264191779e-01  1.1511023640579876e-01  1.0768130822353747e-01  1.0059408833445663e-01  9.0508767674211607e-02 
 1.8382017462883005e-01  1.8734144706353922e-01  2.2304762190694286e-01  1.9347525472329039e-01  2.3265910499325915e-01  2.6181654852786496e-01 
-1.5070058161743313e-01 -1.5732773332337044e-01 -1.3407088026406921e-01 -1.6296159456308107e-01 -1.3861430714286380e-01 -1.1425963047505019e-01 
 2.7045281565170193e-01  2.7077409555694065e-01  3.1117078613770904e-01  2.6923405616839108e-01  3.0554215518042099e-01  3.5014654124138000e-01 
-2.4934507750254864e-01 -2.6992512522300305e-01 -2.6232911234289785e-01 -2.8877687688683823e-01 -2.8253281972502581e-01 -2.7505966888015820e-01 
-8.8008339404834088e-02 -1.4635632258012723e-01 -1.8299983469787753e-01 -2.1376193762826406e-01 -2.5466564744396170e-01 -2.9209603478483898e-01 
 6.3670835417022516e-03 -1.5082654258931916e-04 -2.0144442561529273e-02 -5.6126248372498381e-03 -3.3113384634259641e-02 -4.4914498687006386e-02 
-1.8719811262669361e-01 -1.7305743008916316e-01 -1.6078558839174034e-01 -1.5690274921797689e-01 -1.4504321617771118e-01 -1.3363487684636907e-01 
-1.6052061559023351e-01 -1.8407150603735936e-01 -1.7365964145087193e-01 -2.0637278385884264e-01 -1.9770616954586837e-01 -1.8719811551540746e-01 
-2.4989505157445124e-01 -2.4751158462173473e-01 -2.4992506500221648e-01 -2.4872963279260707e-01 -2.4871149576594909e-01 -2.4448624817514322e-01 
 6.7359994233721687e-02  4.1438993405897837e-02  3.8133838530795217e-02  1.1758445054796753e-02  1.2130474849858767e-02  1.3969171164786446e-02 
-5.1083745881163274e-02 -5.3018195476557631e-02 -5.3990263436896106e-02 -5.3835193093266814e-02 -5.7154852366708038e-02 -5.9871360730364261e-02 
-3.4610857595793276e-01 -3.9274741991980794e-01 -3.4347147406367534e-01 -4.4274855706318111e-01 -3.8932691477065728e-01 -3.3815939563126995e-01 
-1.0628138271560825e-01 -1.4502323720053728e-01 -9.9683092947714325e-02 -1.8494288213904655e-01 -1.4443511798597808e-01 -9.4634915782434631e-02 
-1.7560277802649055e-01 -1.9954096424096474e-01 -1.6974713050275841e-01 -2.1778472220639097e-01 -1.9138948918172807e-01 -1.6232718781710748e-01 
-1.2761013092996709e-01 -8.7264551718955100e-02 -9.7730823579524811e-02 -5.1513334182568135e-02 -5.5027302005702702e-02 -6.4737367631161918e-02 
-3.2055526605387902e-01 -3.2573387360011163e-01 -3.3191093329810567e-01 -3.2965475174824233e-01 -3.3659865723295895e-01 -3.4057329451780244e-01 
 2.6243832749712626e-01  2.6670870678146696e-01  2.5778254454811445e-01  2.6594285045193716e-01  2.6003386223062824e-01  2.5372947439144999e-01 
-1.4954599553099149e-01 -1.1924000970192639e-01 -1.5726644290695851e-01 -8.7508415434980891e-02 -1.2753493152758358e-01 -1.6722470694371958e-01 
-2.5042173676301828e-02 -5.4500244632203272e-02 -2.1915443333591165e-02 -7.5566945689568080e-02 -4.0720754258383646e-02 -1.2650817178175970e-02 
-3.3759204343177557e-01 -3.8701313054974990e-01 -3.1954403096004291e-01 -4.3917904297320282e-01 -3.6669257046155740e-01 -2.9915008411366173e-01 
 2.4032332423715724e-01  1.9115062244488382e-01  1.9737465076550631e-01  1.2370801202856620e-01  1.3931653245888140e-01  1.4800388205976622e-01 
 3.4478839520914401e-01  3.0249711556762698e-01  3.2527672094347043e-01  2.6181664556831014e-01  2.7710097967861508e-01  2.9673490574898903e-01 
 3.5045143698387105e-01  3.4394565134803640e-01  3.5469015395831754e-01  3.3449023520937377e-01  3.4742176677598346e-01  3.5739781998803849e-01 
-3.2793702432050427e-03 -5.4451727625185117e-03 -4.4219372263678711e-02 -1.2399872830374898e-02 -5.0316907610064007e-02 -8.7508341950707280e-02 
-3.2924175050028615e-01 -3.1843940322735120e-01 -3.3827511473443839e-01 -3.0633589847604992e-01 -3.2724074057678654e-01 -3.4501335449742215e-01 
-3.1150363096463085e-01 -3.0181689834636310e-01 -3.2660722542310877e-01 -2.8917035988403450e-01 -3.1640664789083339e-01 -3.4000543341081935e-01 
-7.6519681350064969e-02 -9.0222931136312745e-02 -7.0947529834132439e-02 -1.0311718623487877e-01 -8.2620628750666253e-02 -6.3141909633753324e-02 
 1.9044292093790191e-01  1.9603417398337361e-01  2.1723173923421515e-01  2.0133196877864218e-01  2.2386209004164243e-01  2.4352550351810409e-01 
 2.8458528787088833e-01  2.6533219453777845e-01  2.4189989521228711e-01  2.3988631365711757e-01  2.1561491281214581e-01  1.7848141001094453e-01 
 2.0019026623419797e-01  2.3441316389700512e-01  2.0574345922750906e-01  2.6453665563277851e-01  2.3819858310030650e-01  2.0111926153975537e-01 
-1.6722466310245895e-01 -1.2753500738636650e-01 -1.3956466156165789e-01 -8.7508382112444646e-02 -9.7695844341002216e-02 -1.1137747413412816e-01 
-1.4834424132084839e-01 -1.8261916490823613e-01 -1.6197826268313362e-01 -2.1565573552890852e-01 -1.9556177014420426e-01 -1.7249353970424564e-01 
-2.2929065432820833e-01 -2.4504155849714060e-01 -2.3123418304185528e-01 -2.6036042129478870e-01 -2.4702036094200153e-01 -2.3133056557290477e-01 
 7.0186164265646084e-02  1.0025982937240119e-01  6.0465658595532462e-02  1.3205842904032961e-01  9.4289668625826523e-02  5.3859735397525220e-02 
-1.6356495408214364e-01 -1.9009358500756990e-01 -1.5459854149581254e-01 -2.1094051363521588e-01 -1.7862906879359775e-01 -1.4440500142719842e-01 
-2.7355674557436094e-01 -2.7055939517107408e-01 -2.8746481383087752e-01 -2.6589434143098800e-01 -2.8632684368872990e-01 -3.0093018376202524e-01 
-7.6519689618009756e-02 -5.8437096729860839e-02 -6.2914195482495189e-02 -4.1687376600300627e-02 -4.5659983006480935e-02 -4.8274493125823242e-02 
 1.3553520958302942e-02  6.9036044848053242e-03  1.4016041408235251e-02 -5.2226103375773087e-04  4.8496010523941977e-03  1.2696626175069482e-02 
 5.8540511058281586e-01  6.4943554917327373e-01  6.2530006935302951e-01  7.2229580225495404e-01  6.9596441726726666e-01  6.6358701015745025e-01 
 2.4152853523581277e-02  4.0441592329367934e-02  3.5987343867343549e-02  5.7917676930148355e-02  5.1874159824701199e-02  4.4793685675857710e-02 
 1.3791261632680607e-01  1.1798557528123339e-01  1.1641200680492404e-01  9.7694827580719845e-02  9.6324037032778656e-02  9.4323526016684631e-02 
-9.8306744809964708e-02 -1.3053372907077673e-01 -6.6820102259008265e-02 -1.6373575866416015e-01 -9.4076960655098893e-02 -3.2862578704607036e-02 
-6.4999735392567670e-01 -6.7724287425046792e-01 -6.1075529053390887e-01 -6.9814840403141065e-01 -6.2996524422136546e-01 -5.7012129392321109e-01 
 5.5027136926478717e-02  2.1679373507696994e-02  8.1219406061508626e-02 -1.3682550466129628e-02  4.2846434353422065e-02  1.0757853940551484e-01 
-2.6199171671661509e-01 -2.8122541634735088e-01 -2.6911021737430518e-01 -2.9879497421665169e-01 -2.8820569353842651e-01 -2.7562673208907856e-01 
-2.5457688750048874e-01 -2.5718055301117637e-01 -2.3706315206885972e-01 -2.6007036907124864e-01 -2.3816692280778087e-01 -2.1605875741034281e-01 
-2.0926126501311768e-01 -2.7214942621933685e-01 -2.9066338644237127e-01 -3.4655859488649587e-01 -3.6489082817531576e-01 -3.7779960053911527e-01 
-2.3899598944200456e-01 -2.1933006911027400e-01 -2.3720718378841094e-01 -1.9919027222995703e-01 -2.1797955752384174e-01 -2.3375691873407717e-01 
 4.4800609112448340e-02  2.3487554928411133e-02  7.4923308980239231e-02  1.4683850892832945e-03  5.8916700124164383e-02  1.0741229648735144e-01 
-3.8810757792548146e-02 -6.1037063152502957e-02 -4.9551913129555689e-02 -8.2981170308385213e-02 -7.1789186015065232e-02 -6.0124470370262029e-02 
 3.7188908620756228e-01  3.8435420294329953e-01  3.7832559796590809e-01  3.9355028333621395e-01  3.8832366889081116e-01  3.8125571548136661e-01 
 1.4702313809613746e-01  1.8374417055101522e-01  1.7163031738402179e-01  2.1711160164260587e-01  2.0573202761404830e-01  1.9569732334641488e-01 
 3.5045145513722964e-01  3.3953628849683037e-01  3.4394562892007402e-01  3.2619017060448857e-01  3.3095811455257501e-01  3.3449024957092444e-01 
 1.9816004491211273e-01  2.4027473882004122e-01  2.2977533155908761e-01  2.8046111793052864e-01  2.7705979770805117e-01  2.6986688233738515e-01 
 2.1758286146234293e-01  2.0766427074636476e-01  1.9229213460432576e-01  1.9704587344862093e-01  1.8301306790650287e-01  1.6559747007546213e-01 
 5.4466039418613652e-02  8.6030442125598267e-02  4.5261138929516970e-02  1.2020502889264763e-01  8.1540019693389920e-02  4.0687116943029726e-02 
-7.2239686988716120e-02 -5.9303784429794656e-02 -4.8872140782550359e-02 -4.4570812103859096e-02 -3.7417161480898041e-02 -2.8001980304586317e-02 
 1.0680951317764124e-01  1.4548160985276806e-01  1.2036678552125799e-01  1.7781739259073731e-01  1.5691176411283789e-01  1.3519145954759060e-01 
 4.4800567457341768e-02  5.2699331258680331e-03 -1.4824560546269345e-02 -3.2862528149022373e-02 -5.8628076618943585e-02 -8.4953470892125058e-02 
 3.9587621997301875e-01  4.2568690050708413e-01  5.0193615235285916e-01  4.4796019441831852e-01  5.2555491360393680e-01  6.1449209353463752e-01 
-5.1121398778567950e-01 -5.5044777216688934e-01 -5.6097172068880374e-01 -5.8856091915620579e-01 -6.0662625768859235e-01 -6.1765617677564733e-01 
 1.2099606027975725e-01  1.1431750547599030e-01  1.4303994934708458e-01  1.0698465732746663e-01  1.3613700043867530e-01  1.6448637221069790e-01 
-7.8857041311369525e-01 -8.4482871059370990e-01 -7.5893876126752680e-01 -8.9607426581111593e-01 -8.0560570583947910e-01 -7.2496298763489053e-01 
 2.0542797890013326e-01  1.8910881033065646e-01  1.7267303746922105e-01  1.7037489535790348e-01  1.5399406783453490e-01  1.3919322638743162e-01 
-3.2277201861512084e-01 -3.0770827908389703e-01 -3.2032485252893511e-01 -2.9012641935852856e-01 -3.0373247991812896e-01 -3.1571689675496706e-01 
-3.9736245839817397e-01 -4.0317549192452190e-01 -4.0069728080857842e-01 -4.0531426807327164e-01 -4.0460842072690995e-01 -4.0222703977290525e-01 
-1.8333566622016167e-01 -1.4115833818774190e-01 -1.2657599914301249e-01 -9.8520711794306257e-02 -8.8387454661480555e-02 -7.5031974730700196e-02 
-1.6052061433862660e-01 -1.7365964720529450e-01 -1.4785519520985066e-01 -1.8719811456295760e-01 -1.6078558659425513e-01 -1.3363488190210426e-01 
-1.1075596469141825e-01 -9.1105199017028890e-02 -1.0635517320065936e-01 -7.1998600029817020e-02 -8.5883877737653283e-02 -9.7640041368271618e-02 
 1.7306798579282529e-01  1.6704220241756829e-01  1.5395637482601154e-01  1.5970857964800123e-01  1.4824826487247264e-01  1.3480024026824161e-01 
 2.5834570036950927e-01  2.7405216756596867e-01  2.7580909980408508e-01  2.8555495436538503e-01  2.9045042545048783e-01  2.9241578830763038e-01 
 4.0239831354673788e-01  3.9847110795705420e-01  3.9934239041685804e-01  3.9232239622969656e-01  3.9486061791552690e-01  3.9355031895915177e-01 
-2.7282328307205744e-01 -2.8818679349951226e-01 -2.5136014779846050e-01 -3.0210683824832668e-01 -2.6780414082520770e-01 -2.2964516707595350e-01 
 4.0239835960783921e-01  4.0237411174917076e-01  3.9908085246516145e-01  3.9890897533073233e-01  3.9620611217012058e-01  3.9145414050577787e-01 
 9.6187907121162666e-02  8.2628048290992628e-02  1.2537253252057895e-01  7.0170625426389757e-02  1.1818193611141758e-01  1.5903113212021661e-01 
-1.6205393916164210e-01 -1.4076414610926072e-01 -1.6329635762530667e-01 -1.1940265028037433e-01 -1.4320122397356264e-01 -1.6296158944287803e-01 
 3.3754488734940574e-01  3.5130122962469873e-01  3.5649059170713043e-01  3.6293286919256085e-01  3.6826758395868264e-01  3.7188904878939216e-01 
 2.3143713899641830e-01  2.4005377520383755e-01  2.0833858995604082e-01  2.3288955182659027e-01  2.0307398805636839e-01  1.6923459415930728e-01 
 7.2131960031765607e-01  7.1707622133532556e-01  6.1560389171926444e-01  7.0501676381358813e-01  6.0735953006976362e-01  5.1719932080786202e-01 
-2.4772919384857922e-01 -2.3266625439609867e-01 -1.9759945296697493e-01 -2.1033115213973783e-01 -1.7293266697177972e-01 -1.2640803011395949e-01 
 2.1382967890126742e-01  1.9382533133878771e-01  2.1776160365518349e-01  1.7342106022280951e-01  1.9780116749784438e-01  2.1832241016614806e-01 
-6.6852282556661713e-01 -6.9947602281096077e-01 -6.3013425179739879e-01 -7.2229579059242721e-01 -6.5120744524832563e-01 -5.8856099211951085e-01 
-5.5014245869318690e-02 -6.6534089627447640e-02 -6.3240665118646261e-02 -8.1783078978665408e-02 -7.6004894251672991e-02 -7.0273545960145692e-02 
-3.6292686156526571e-01 -3.5674751920241404e-01 -3.4778071036893832e-01 -3.4888537289727317e-01 -3.3989062510260787e-01 -3.2924175165875397e-01 
-5.2195834848960706e-04 -2.3665070419051542e-03  2.3352801626098339e-02 -4.3726145597383463e-03  2.2551546895975372e-02  4.8414002335031778e-02 
 5.8646145862970402e-03  1.3264548105523067e-02  2.3319132638951441e-03  1.9743634519945409e-02  9.2297767978685840e-03 -5.4854006557762908e-04 
-2.5295539400954892e-01 -2.6385873948607413e-01 -2.7382433783677834e-01 -2.7236692296175180e-01 -2.8293352855477466e-01 -2.9299644192636715e-01 
 5.1319351595856322e-02  5.1476308271322171e-02  4.8780767341317421e-02  5.4096035360168319e-02  4.8121357617953470e-02  4.4833512348758028e-02 
-3.0508053052076983e-01 -2.9013643058077349e-01 -2.7373492957936824e-01 -2.6422117129163003e-01 -2.4659245886278700e-01 -2.2075500868808240e-01 
 1.1425725775419804e-01  1.2278938313428657e-01  1.3099364599515254e-01  1.3094838455720423e-01  1.4082560619237014e-01  1.4812553266113732e-01 
 2.8778129618586579e-01  3.0568406503520618e-01  2.8982320294940156e-01  3.2145409977391937e-01  3.0768965801480197e-01  2.8943759189156687e-01 
 4.0995258921085215e-01  3.6824212801995232e-01  3.9750535746463500e-01  3.2633459563455114e-01  3.4933937061267567e-01  3.7686928202732622e-01 
 3.4449475142477459e-01  3.5096387883317748e-01  3.3879425184972928e-01  3.5464775561196449e-01  3.4501935564106384e-01  3.3172930167930975e-01 
-2.6199171155541240e-01 -2.6725159864558490e-01 -2.8122542895406377e-01 -2.7106683739349924e-01 -2.8538861009819905e-01 -2.9879496735043970e-01 
 4.9474678867189203e-01  4.5802149071760839e-01  5.0693013881751992e-01  4.1907356624942294e-01  4.6104180514155407e-01  5.1055074378618359e-01 
 4.4206251900281233e-02  6.8594752767485723e-02  6.8398169606199641e-02  9.3358322139008229e-02  9.2452241321393944e-02  9.1407153385790307e-02 
 2.4032309990237530e-01  2.3355282038415048e-01  1.9115044765348396e-01  2.2052764840324979e-01  1.7587727734721656e-01  1.2370777562649864e-01 
 7.2576949775201371e-01  6.8895818681045395e-01  7.6555495550391228e-01  6.4999746247556767e-01  7.2051426534207519e-01  8.0013937650071243e-01 
-2.5263551940554191e-01 -2.2648614896801028e-01 -2.5030320667641770e-01 -1.9592181958649130e-01 -2.2395893895510496e-01 -2.4778073015094992e-01 
-1.6052061703602441e-01 -1.6240138573899685e-01 -1.8407150004556194e-01 -1.6328499650977096e-01 -1.8452738189298112e-01 -2.0637279210318396e-01 
-7.9983569926163720e-02 -7.1465991956393082e-02 -6.0309146992258214e-02 -6.0639450981571849e-02 -5.1628194056051860e-02 -4.2202705488826431e-02 
-1.4264482678927923e-01 -1.5460919280039062e-01 -1.7880133012188559e-01 -1.6804464813229786e-01 -1.9272713976506120e-01 -2.1431992555754686e-01 
 2.0111912329115064e-01  2.2081565947323878e-01  1.7783653870672569e-01  2.3604987207981754e-01  1.9210479819009196e-01  1.4161037416934563e-01 
 4.8430477309046316e-02  3.3731814106957560e-02  5.8565534514922669e-02  2.0925409772156279e-02  4.4784719401443261e-02  6.8459483654328759e-02 
-5.5014168317275985e-02 -5.5098856213074074e-02 -6.6534139687335014e-02 -5.5181872556782058e-02 -6.9448549200881352e-02 -8.1783082857222925e-02 
-1.2458799319361755e-01 -1.5101020141190766e-01 -1.3728588559215582e-01 -1.7585944078422491e-01 -1.6060919192083351e-01 -1.4391808282038099e-01 
 2.1766699301784390e-01  1.8719451559763808e-01  1.8185318201392620e-01  1.5313433106777141e-01  1.4613942032909616e-01  1.4008648058706669e-01 
-3.2956589787271728e-02  5.5641387209168459e-03 -3.7270331857499193e-02  4.9471206587886375e-02  7.6247594676305767e-03 -3.6088562779007335e-02 
 1.4702309417188258e-01  1.7163022058790323e-01  1.3832818634991426e-01  1.9569728268021930e-01  1.6545815203306311e-01  1.3205834685927820e-01 
-8.7109784741333884e-01 -9.2874592230147790e-01 -8.3034161975671261e-01 -9.8367924639408899e-01 -8.8077931612330784e-01 -7.8857051713640547e-01 
 2.1766699283819524e-01  2.1276581653414922e-01  2.4490434686455051e-01  2.0855003429705152e-01  2.4065832399104584e-01  2.6819629140269557e-01 
-6.3627330964707574e-02 -3.9125912730617315e-02 -9.1298242729199071e-03 -1.3682602780567614e-02  2.1679363036578275e-02  5.5027137987750441e-02 
-3.8765461237880100e-01 -3.8243983202498549e-01 -3.9315737288394093e-01 -3.7528544528059271e-01 -3.8801262519689073e-01 -3.9736247197930441e-01 
 7.8193002636362996e-01  7.5918281326101300e-01  8.4960576037473112e-01  7.3283829954654689e-01  8.1884525095037719e-01  9.1547655312333909e-01 
-7.1650510407291729e-02 -9.7143469007662492e-02 -5.8808328795136144e-02 -1.1295785695972546e-01 -7.2507512501616606e-02 -3.7926181506803242e-02 
-2.2392422092272266e-01 -2.6746458608629148e-01 -2.4154481886955409e-01 -3.0973347412722668e-01 -2.7727338432063620e-01 -2.5285642653699425e-01 
 4.9021543021102904e-01  4.5143679061850095e-01  4.9221874906714919e-01  4.0995267059156898e-01  4.4444063309723020e-01  4.8455542375086624e-01 
-5.0896902401546255e-02 -4.6362695253466001e-02 -5.0759794520339387e-02 -4.3482413553266770e-02 -4.8014689316377188e-02 -5.1083738482431348e-02 
-1.7723005787505428e-01 -1.8856724506007866e-01 -1.6336911369506049e-01 -1.9919025502241353e-01 -1.7298504334849948e-01 -1.4573492915143199e-01 
 2.4089182313818269e-01  2.5388571611300487e-01  2.8309514454321938e-01  2.7092148515819925e-01  3.0278308254977826e-01  3.2633451791741530e-01 
-3.1256875488652658e-01 -3.4996722165594729e-01 -3.0840628809096887e-01 -3.8996460746685951e-01 -3.4485867504127882e-01 -3.0067431575067499e-01 
 1.2696623100251847e-02  4.8496059149200615e-03 -2.0442340002085251e-04 -5.2226478487095028e-04 -6.2106322602710658e-03 -1.4570901044051949e-02 
-3.0906598875429436e-01 -3.1572752671789284e-01 -3.4308728315500803e-01 -3.1703694691762507e-01 -3.4282575363062928e-01 -3.7382254985144969e-01 