<VTKFile type="UnstructuredGrid" version="1.0" byte_order="LittleEndian" header_type="UInt64">
<UnstructuredGrid>
<Piece NumberOfPoints="7320" NumberOfCells="4880">
<PointData>
<DataArray type="Float64" Name="τxy" NumberOfComponents="1" format="ascii">
 3.4674786792634765e-01  3.5452205167909762e-01  3.4944296988139883e-01  3.5982661994152298e-01  3.5409902600644910e-01  3.4637025900886109e-01 
 1.8089086474223823e-01  1.8967782460839383e-01  1.4772073155746290e-01  1.8302977080837912e-01  1.5319009862189864e-01  1.1200797503479136e-01 
 3.3171486117691323e-01  3.3969825225829836e-01  2.5178661270990976e-01  3.4450789930695330e-01  2.5867905123773083e-01  1.8084662621952308e-01 
 1.0989476079794383e-01  1.2304411810298273e-01  1.3480059858909071e-01  1.3480024502561422e-01  1.4824829049783167e-01  1.5970858992525161e-01 
 1.5828723822956828e-01  2.4357766520852495e-01  1.9296926879820470e-01  3.5079528990595016e-01  2.9527763333475138e-01  2.3253647329437080e-01 
-1.2301771841418663e-01 -1.4857507747086576e-01 -1.3676569708630690e-01 -1.7359938521033863e-01 -1.6227704723456049e-01 -1.4952825071577383e-01 
 4.6180324175396636e-02  6.3486158616910218e-02  8.7244832882536372e-02  7.5883967180434733e-02  1.0753748452092189e-01  1.3516992832048066e-01 
-4.3538535901422210e-01 -2.9217136356908396e-01 -3.6449759599934989e-01 -1.7198764990038870e-01 -2.2937323523976755e-01 -2.9019339749137241e-01 
 3.0588443779427837e-01  3.2743178486820751e-01  3.0915800833909252e-01  3.4449463839025601e-01  3.2997352578847161e-01  3.1185374038538055e-01 
 4.9474686558145581e-01  4.7795574237801769e-01  4.3483786787068945e-01  4.5168846130435714e-01  4.2001379882998308e-01  3.8596173525861055e-01 
-1.2243868452691357e-01 -8.4332707015177810e-02 -9.4966426917136651e-02 -4.9176738171206887e-02 -6.1258014403284544e-02 -6.2606744269645034e-02 
-3.6131303108741863e-01 -3.4436089911259621e-01 -3.4738088514949117e-01 -3.2554203239911295e-01 -3.2884978890830430e-01 -3.3042986733936058e-01 
 2.9544845752098214e-01  3.1605450226038972e-01  3.1466707276203310e-01  3.3011252260190144e-01  3.3104918537821082e-01  3.2959138427188106e-01 
 7.7999089322215637e-02  1.3917934378788750e-02  3.3242256653309675e-02 -5.0965228373977212e-02 -2.8917730788036809e-02 -1.2399954476709005e-02 
 1.4832213966217167e-01  1.8366456803790671e-01  1.7575533015173261e-01  2.0129392587759484e-01  2.1510188519170248e-01  2.0018997393709242e-01 
 2.0925637687668745e-02  9.5790795384408777e-03 -6.8434563895906700e-03  1.2561086778068514e-03 -2.3331227390922579e-02 -3.2383428083940000e-02 
 3.0579157467136125e-01  3.0691235912885884e-01  3.2669877709383344e-01  3.0718610065758306e-01  3.2657585788779259e-01  3.4342273050340233e-01 
-2.6346851372788516e-01 -2.2571003615238236e-01 -2.3533895385538983e-01 -1.8194329857496505e-01 -1.9288767447485089e-01 -1.9057036347228259e-01 
-2.7899677843214127e-01 -2.6504798992547346e-01 -2.7274825142345571e-01 -2.5156669339114568e-01 -2.5684957007890885e-01 -2.6235227582415371e-01 
 1.7750437293206769e-01  1.1371354614442798e-01  1.9442378244608466e-01 -7.1537119470150129e-06  1.0809618448598431e-01  2.0285529922768500e-01 
-3.7571638075375663e-01 -2.9832232118790564e-01 -3.7859308379014811e-01 -2.2132075866382353e-01 -2.9185516082102192e-01 -3.7766278750036575e-01 
-5.0763116028877930e-01 -5.7481552550085124e-01 -5.4436672395618158e-01 -6.4999740652336191e-01 -6.1075532879961347e-01 -5.7012122992462444e-01 
-2.1970667229529989e-01 -1.7820510441843340e-01 -1.9435269852526985e-01 -1.3079395380305020e-01 -1.4987385343789680e-01 -1.6387791203155611e-01 
-8.7165721947012012e-02 -5.8838793115392363e-02 -3.9712542774810670e-02 -3.2395990861294022e-02 -2.3347087964261194e-02  1.2407010691479058e-03 
-1.1643306742042732e-01 -1.7212339672226504e-01 -1.7783155251230151e-01 -2.1970654355904851e-01 -2.2549319647935542e-01 -2.2865863833773198e-01 
-6.9422236615216792e-02 -9.2979576663328636e-02 -8.5082666589377645e-02 -1.2115389130963634e-01 -1.1092825897982611e-01 -9.6979983820201704e-02 
 7.3731043921812967e-01  7.2912947896747649e-01  5.6263025703722447e-01  7.1414771288345580e-01  5.5354052704290957e-01  4.1549200632889599e-01 
 8.8690692111241033e-04  1.1400907524572628e-02  4.6768576834684827e-03  2.1335679668948643e-02  1.1131410689158608e-02  3.0971840033224124e-03 
 8.4724922085807272e-02  3.8875922224911610e-02  5.3792883505030677e-02 -1.3105771651409606e-03  1.9476154092951298e-02  2.6126786640671383e-02 
-1.5497626045462132e-01 -1.8332368464080023e-01 -1.9232649758894979e-01 -2.0554352060382552e-01 -2.1166926833477290e-01 -2.2593778209348916e-01 
 1.4921899393219870e-02  7.9285988658074028e-02  7.6883858938112518e-02  1.4296617149213495e-01  1.5704047268144777e-01  1.6602421577467413e-01 
-2.5690424487823477e-01 -2.9656071478990775e-01 -2.8779385384925787e-01 -3.2846026714465026e-01 -3.3257372391135603e-01 -3.2912733782018616e-01 
 3.0588442781049791e-01  3.2913173472031193e-01  3.2743174912434925e-01  3.4651784447694883e-01  3.4618492798876505e-01  3.4449469781115405e-01 
 4.9021549503129513e-01  5.2966751370865761e-01  4.7659092433171951e-01  5.6806912392671416e-01  5.0637443625252887e-01  4.5171447178379520e-01 
-2.5365413211226144e-02 -6.1960202325292028e-02 -4.1164839613119439e-03 -9.8306760800797865e-02 -3.3927633861856002e-02  2.1405619459632437e-02 
 2.0921684888848679e-01  2.2759630304764092e-01  1.7723241727246747e-01  2.4096514171792871e-01  1.9159454059245917e-01  1.4710207992689023e-01 
 2.7734157694420702e-01  2.8019278673679632e-01  2.4174780296643700e-01  2.5503379898623035e-01  2.2782350021412384e-01  1.8450916701178693e-01 
 3.8296656618551264e-02  7.4748059609284712e-02  5.3324482600982076e-02  1.1722387456442433e-01  9.4145012016529181e-02  6.7360097898578636e-02 
 5.8994583780522740e-02  6.2679149248047905e-02  2.4398131635323055e-02  6.5572594800045722e-02  3.2015811213037225e-02 -9.6329261973087527e-03 
 2.6025173345094621e-01  1.6026234380062201e-01  2.3477650490824103e-01  7.2678121432412576e-02  1.3540930267943660e-01  2.0599364933868253e-01 
 2.9822693512385617e-01  2.6941295686757405e-01  2.5226003212629172e-01  2.4096514802323143e-01  2.2759628307776983e-01  2.0921685239478238e-01 
-5.9318074659640940e-01 -5.1155774589206149e-01 -4.3018742655655140e-01 -4.3538536208278045e-01 -3.6449744285742858e-01 -2.9019316929329092e-01 
-6.0808999929207762e-02 -7.6903618339454707e-02 -2.6843184100404555e-02 -9.5967877366948923e-02 -4.7731644575424628e-02  8.4649634764447333e-03 
-1.0974052245338917e-01 -6.5628039450803657e-02 -9.0106814814293057e-02 -2.2726292680761505e-02 -4.2860685129462270e-02 -7.1152468038558292e-02 
 2.8638396585298431e-01  2.5815420833214814e-01  2.6587534618100372e-01  2.2711744412717852e-01  2.4416012126652192e-01  2.5280306008610359e-01 
-1.3919368076524255e-02 -4.9986100579485909e-02 -2.3466373658609506e-02 -8.6303107450972708e-02 -6.0783439747656438e-02 -3.3603083723714969e-02 
-1.6447414234632787e-01 -8.4818469876341909e-02 -1.3435715825375708e-01 -1.5854481903880117e-02 -5.9746757731665490e-02 -1.0472450631304921e-01 
-1.8504040537896560e-01 -1.6135310389494334e-01 -2.2256980811017635e-01 -1.3144498566974500e-01 -2.0162275745254962e-01 -2.7054953585250269e-01 
 3.3754486163656022e-01  3.4956506951377975e-01  3.2994276931908734e-01  3.5797662754452231e-01  3.4127082782147367e-01  3.2128961772919801e-01 
 7.5914371696690500e-03  3.6840098969651895e-02  2.1676022026126299e-02  6.5572565978594191e-02  4.7687839015592683e-02  3.2772944569387633e-02 
-2.3375381577828427e-01 -2.1222221884518885e-01 -2.1286449123234397e-01 -1.9411846235445709e-01 -1.8601044796153579e-01 -1.8432255904755152e-01 
-4.2769330896089260e-02 -1.8512514650324413e-02 -3.8486046263337542e-02  4.9895684927659441e-03 -1.7660583222746769e-02 -3.4137901169584539e-02 
-1.4954598769453298e-01 -1.8583217117095141e-01 -1.9166658632107891e-01 -2.2134445523151411e-01 -2.2536909721366030e-01 -2.2964522248430397e-01 
 4.6180488849194082e-02  8.7244804638591147e-02  5.8029814237497382e-02  1.3517018960773924e-01  1.0467183857452050e-01  7.0225992716801702e-02 
-2.3120976843027136e-01 -2.4760686358854572e-01 -2.4432029644932160e-01 -2.6235225485622493e-01 -2.5684953911242370e-01 -2.5156673439549737e-01 
-3.7571645662099734e-01 -3.3044565474509052e-01 -2.9832240883109690e-01 -2.9287290880263456e-01 -2.6188898485927448e-01 -2.2132103310289220e-01 
-2.5378678335805999e-01 -2.3744358166882878e-01 -2.2772593116406484e-01 -2.1941651018650421e-01 -2.1069584161994312e-01 -1.9973478641628814e-01 
 1.3929832988666871e-01  1.3955814130129257e-01  1.0982305520170547e-01  1.3814974419945644e-01  1.1255470923730612e-01  8.0246262605740887e-02 
 7.0501684515032403e-01  5.6420359655869468e-01  6.0735937030312481e-01  4.3855573771951673e-01  4.8081218472493575e-01  5.1719932816869951e-01 
-1.5577956219392169e-01 -1.8312968316220354e-01 -2.0175053028493459e-01 -2.0806819919779612e-01 -2.3173017826121969e-01 -2.5428857276284200e-01 
 6.1186714885353738e-02  3.7459276046049900e-02  4.2220194993103199e-02  1.8618676244569893e-02  2.4437082298368707e-02  2.6906737995824444e-02 
-9.1094562716575234e-01 -7.4387898286651644e-01 -9.0522036211265267e-01 -5.9318064091774414e-01 -7.3343421794704788e-01 -8.9370810196244233e-01 
-3.3182638650730623e-01 -3.1993155796212791e-01 -3.3227455992913874e-01 -3.0497271565544803e-01 -3.1670673404653488e-01 -3.2635818910147318e-01 
 3.0629593265657862e-01  3.1917649008544108e-01  3.0203466679578628e-01  3.3011254276196489e-01  3.1605448143072368e-01  2.9544842731580390e-01 
 6.0857377755866034e-02  7.9544904497834742e-03  7.5669070615394865e-02 -4.3025275435404978e-02  1.8294294375992129e-02  8.9164320325222160e-02 
-2.0926463096029416e-02  4.0732061592774690e-03 -9.9451482745547774e-03  2.6116409697774099e-02  1.9463938399960284e-02 -1.3221655725263362e-03 
-2.5305888817642502e-01 -2.2915596291472740e-01 -2.3381822026554316e-01 -2.0394722485704789e-01 -2.0798813817447942e-01 -2.1343904364724148e-01 
-2.1970675354793912e-01 -1.9435267657905808e-01 -2.3587519862644585e-01 -1.6387810891027829e-01 -2.0876332405662112e-01 -2.4879001256116515e-01 
-6.6825517846276916e-01 -5.7133965273809773e-01 -6.5641389935971761e-01 -4.8533400785232828e-01 -5.5678934378946354e-01 -6.3695123410640231e-01 
 1.1758679683359649e-01  5.0168633131449432e-02  9.7509388867722993e-02 -9.4061050954117598e-03  3.1293484668791040e-02  7.5505027670615760e-02 
-7.0336684594919791e-03 -4.4847505369505951e-03  1.8483657700014505e-02 -1.9418216696869136e-03  2.0832625049806139e-02  4.3793278685272753e-02 
 4.9972938725155382e-02  3.8266676341476055e-02  5.8246838984989044e-02  2.7590841760123767e-02  4.2890919131998329e-02  6.1084165311164333e-02 
-1.7193829741397335e-01 -2.1447513497262666e-01 -1.6701263710623798e-01 -2.5690422128856139e-01 -2.1737795977533877e-01 -1.6351740405842480e-01 
-2.6199171501008406e-01 -2.4240253005924828e-01 -2.6725160293537570e-01 -2.2198128471752385e-01 -2.4826050534808300e-01 -2.7106686568278082e-01 
 3.2729638868663737e-02  2.3127912352327286e-02  4.1535355386010595e-02  1.1451164665059389e-02  2.6115224627700502e-02  4.4793666269101556e-02 
 2.0397548864712722e-01  1.7450096780919819e-01  1.5481807413535539e-01  1.5000119318098917e-01  1.2523421032397100e-01  9.6187878663394705e-02 
 5.8540504100562440e-01  5.1378487044546473e-01  5.3969075705938729e-01  4.5168842853023361e-01  4.7795558494609708e-01  4.9474689655858556e-01 
-2.7106684351258581e-01 -2.4826049863379038e-01 -2.4996001996650186e-01 -2.2198126239184260e-01 -2.2552267680930324e-01 -2.2786419117094953e-01 
-1.1643330201896200e-01 -1.2406573944296065e-01 -1.7212348625259641e-01 -1.3079381772020152e-01 -1.7820507941243910e-01 -2.1970677708963551e-01 
-1.1604673854542484e-01 -1.4115910328866160e-01 -6.5960881359592591e-02 -1.6387741598311528e-01 -8.8550654878677790e-02 -3.0818863976501061e-07 
-2.3768259834899125e-01 -2.2100566457683354e-01 -2.7823154871074152e-01 -2.0237180910764072e-01 -2.5744103516676559e-01 -3.1922703794672153e-01 
-2.8166917645725559e-01 -3.0685709304307890e-01 -3.0551758288536746e-01 -3.3042992821817252e-01 -3.2884986120321086e-01 -3.2554213312738250e-01 
 7.7999246297376854e-02  3.9234039622102215e-02  1.3917842213620404e-02 -7.4409759137536325e-03 -2.8045975951378505e-02 -5.0965152456279320e-02 
 2.3098165654129135e-01  2.0368729104660546e-01  2.4349137066532753e-01  1.7542963935706885e-01  2.1623102415708126e-01  2.5144277433803552e-01 
 2.9010861861571674e-01  2.4654229970404598e-01  2.6943898405788014e-01  2.0397550603616585e-01  2.1907178128797514e-01  2.4089178766502450e-01 
-2.1310639911981566e-01 -1.9110057263163038e-01 -1.8105222148209910e-01 -1.6507954805185299e-01 -1.4968107858048771e-01 -1.3584633457012710e-01 
-6.0114049529317537e-01 -6.4317576320437142e-01 -4.7049157868416808e-01 -6.7842267375273813e-01 -5.0310436973950967e-01 -3.5999230851562170e-01 
-1.3144458513770038e-01 -6.5240418649470625e-02 -1.5391572655156777e-01  4.7303554001521262e-03 -7.9986276904627521e-02 -1.8233238030471796e-01 
 2.3780276476198542e-01  2.6999623342067253e-01  2.4289553177274939e-01  2.9544844124778580e-01  2.7379268707423532e-01  2.4751187140462669e-01 
 2.0397551938053213e-01  1.5481813613721973e-01  1.8404348939219609e-01  9.6187882123232593e-02  1.2537254017322913e-01  1.5903116603266887e-01 
 2.5117872536156333e-01  2.0301388207022722e-01  2.3666479088525275e-01  1.4571695936678586e-01  1.8649063590898404e-01  2.2015214822945772e-01 
 1.7306797950299652e-01  1.8539369258498195e-01  1.9282637073593051e-01  1.9704590535989966e-01  2.0591109212989706e-01  2.1073781629933203e-01 
 9.6986970683809737e-02  5.4824039868898021e-02  4.4935268076131976e-02  8.9281432612452142e-03 -4.6685923800676103e-03 -1.5854481800064633e-02 
-1.2301770673337031e-01 -1.3144046238910806e-01 -1.4857507627255759e-01 -1.3865198376998980e-01 -1.5662414149435125e-01 -1.7359937219058177e-01 
-3.7382255410551696e-01 -3.4282570355902975e-01 -3.7763751700589648e-01 -3.1703699457666257e-01 -3.4728560059829777e-01 -3.7371943846408645e-01 
-1.5854481439255264e-02 -4.6685883040403454e-03 -5.9746805100692600e-02  8.9281579302724762e-03 -4.4244898245565691e-02 -1.0472449191122388e-01 
-1.0230697783970039e-01 -1.0938930490652492e-01 -7.6673724213567010e-02 -1.1646299489161113e-01 -8.3049065345852865e-02 -4.9421895192686437e-02 
-1.8329923275265725e-02 -3.2306690803583178e-02 -1.5318134585846636e-02 -4.1305538420284713e-02 -2.5004612975383787e-02 -1.2019466594533292e-02 
-1.2115387800419447e-01 -1.4379571801494598e-01 -1.1092824658976942e-01 -1.6490436698729707e-01 -1.2817572669632771e-01 -9.6979971021957656e-02 
 9.9470119906246948e-02  1.3815103813929919e-01  8.8918897974535338e-02  1.6964592457163749e-01  1.2198307072948510e-01  7.5024593556795527e-02 
-2.5365407147467576e-02 -8.5868942449975630e-02 -6.1960194620114428e-02 -1.5574802459427911e-01 -1.2829343572256330e-01 -9.8306793630595010e-02 
 6.7807995056035630e-02 -1.5557661975347397e-03  3.9125749278473974e-02 -6.0808992493102884e-02 -2.6843196634725761e-02  8.4649717797381212e-03 
-1.3750290530724979e-01 -1.7051920369883536e-01 -1.4831868835949283e-01 -2.0806821034342415e-01 -1.8312969164880857e-01 -1.5577956943410617e-01 
 2.8638393404713980e-01  2.6587547110666360e-01  2.9033789119163178e-01  2.5280303072902177e-01  2.6926696624623031e-01  2.8633039845443986e-01 
 4.9576308339937175e-02  4.1893686208984107e-02  5.6365350081160955e-02  3.8253427772985273e-02  4.8944352241204143e-02  6.1077845132086653e-02 
-1.6205393217648331e-01 -1.6329634725689879e-01 -1.8927652632848110e-01 -1.6296160879069146e-01 -1.8835353056038440e-01 -2.1358990754521476e-01 
 1.7789297795547401e-01  1.2901100814941849e-01  1.5373280468293760e-01  8.6506457695133002e-02  1.0623219292515565e-01  1.2643570965761822e-01 
-1.4819542638195200e-02  1.0342855847370595e-02 -4.5651267760190614e-02  3.3910891387248378e-02 -1.6855126987401874e-02 -7.4695527695211233e-02 
-2.5611774047203037e-02 -1.0991607667998044e-02 -2.0329659612411066e-02  2.0953874305320087e-03 -7.9248176534571259e-03 -1.6041416649481662e-02 
 4.9459181138514302e-02  5.2795615763068675e-02  4.4977732386747273e-02  6.1077732589490598e-02  4.8944345911655515e-02  3.8253336531454976e-02 
-2.3532902859779065e-01 -2.5013434904638476e-01 -2.7787361353028484e-01 -2.5576511201088498e-01 -2.8966465685058124e-01 -3.0317830443932203e-01 
-4.9177019429239487e-02 -2.5629398840141999e-02 -6.1257965213381921e-02  1.1758449899487900e-02 -2.3993382401938646e-02 -6.2606828034361003e-02 
 5.2908914424438479e-03  6.6364268934490534e-03  1.5237423564174509e-03  4.7973315034242946e-03  1.4241692196389059e-03  2.0957906680604520e-05 
-2.5611781260948468e-02 -2.0329680714069247e-02 -3.5302432938579535e-02 -1.6041427608132756e-02 -2.8678967959358186e-02 -4.3031845311315792e-02 
 3.3739507083968417e-02  9.1830609097345584e-03  1.4547209249501187e-04 -1.3919383791914305e-02 -2.3466373550706306e-02 -3.3603095179647151e-02 
-1.5068169766797299e-01 -1.8282713136147710e-01 -1.7821094071396806e-01 -2.1343920631148741e-01 -2.0798823755563911e-01 -2.0394741156017762e-01 
 5.2433726947867368e-02  4.1863234271024161e-02  1.1847605537762045e-01  3.0956927406224764e-02  1.0639238153049926e-01  1.7349861414383924e-01 
 2.6025172555173431e-01  1.9332029629019440e-01  1.6026232304985519e-01  1.3248415089671903e-01  1.0408794791503982e-01  7.2678115468161025e-02 
 3.3513460871911793e-01  3.4051985719911115e-01  3.2362981381544176e-01  3.4342273505161397e-01  3.2657582556210346e-01  3.0718613570133996e-01 
-1.2037312391125952e-01 -1.0735047738996359e-01 -1.4994043351825337e-01 -9.0956757367203170e-02 -1.3297506999952702e-01 -1.7249362122841508e-01 
 3.0629592132343714e-01  3.0203463224230387e-01  2.9408793126610705e-01  2.9544844866146464e-01  2.8747530687801637e-01  2.7867766526558257e-01 
 1.4832198756822307e-01  1.2959410526463949e-01  1.8366433827229323e-01  9.9939671596052437e-02  1.4964086246450539e-01  2.0129266111557531e-01 
-3.3182642802014167e-01 -3.3227458019608552e-01 -3.4182300053206932e-01 -3.2635826803561230e-01 -3.4074429493688163e-01 -3.5094782712219486e-01 
-2.7889431041851093e-01 -2.8608864302460596e-01 -2.9739114763656360e-01 -2.9012639207670715e-01 -3.0416862487898200e-01 -3.1360031548389006e-01 
 8.8183356185724565e-02  6.8560189014438888e-02  7.4458596000016128e-02  4.9972935710689816e-02  5.8246829748881936e-02  6.1084165501729341e-02 
 3.8296103662076711e-02  5.3324379475401917e-02  2.9341295180772584e-02  6.7359964030791003e-02  3.8133902152917259e-02  1.3969232620175073e-02 
 2.7152068830052736e-02 -1.8534706159289427e-02  8.4334270287084220e-02 -5.5294490531536199e-02  3.3622688082913556e-02  1.3897714864377489e-01 
 9.0860374386617440e-02  1.0665065094708982e-01  1.3893879818065583e-01  1.1200897780597785e-01  1.5318985981865593e-01  1.8303037090568916e-01 
 1.1425725832529593e-01  1.3099364237213607e-01  1.2135872578337306e-01  1.4812553336125941e-01  1.3722700729947584e-01  1.2602206955686027e-01 
 1.0989474776586912e-01  1.3480058478271145e-01  1.2028869070633511e-01  1.5970857848940384e-01  1.4507077963330350e-01  1.2931257709450067e-01 
-2.8086137264828476e-01 -2.4182387730893781e-01 -2.7192238559074478e-01 -1.7784219712326299e-01 -2.0859322381978304e-01 -2.2605048479241982e-01 
 8.8183347324486988e-02  1.0170801035031246e-01  1.1168451734814583e-01  1.1075461606621211e-01  1.2664566787250908e-01  1.3888632335438111e-01 
 2.2096742448197942e-01  1.9176386447443197e-01  2.0500649639752680e-01  1.6117659565810696e-01  1.7501455256153370e-01  1.8736454547737583e-01 
-2.1310650383635782e-01 -1.8105231030426625e-01 -1.9839472505670586e-01 -1.3584635638229467e-01 -1.5942074563120073e-01 -1.8188263090290543e-01 
-1.6489034568502350e-01 -1.3869576557516683e-01 -1.6889404022679264e-01 -1.1223749685616577e-01 -1.4366245963492388e-01 -1.7172715227642116e-01 
 4.9474682970169304e-01  4.3483793410477489e-01  4.5802148944201504e-01  3.8596172112248039e-01  4.0535464609890021e-01  4.1907354711471256e-01 
 2.2546077956708541e-01  1.7929702708656486e-01  3.1205728762493773e-01  1.3897743437511795e-01  2.5542897659955310e-01  3.9587635555385825e-01 
 1.3791260903983735e-01  1.6306183254495085e-01  1.5016165525044609e-01  1.8736452313764956e-01  1.7501451873546869e-01  1.6117655356352142e-01 
-4.9679593873744748e-01 -4.3032050530072929e-01 -5.8498885070671380e-01 -3.5999213518089856e-01 -5.0310433103372132e-01 -6.7842240025116896e-01 
 3.4398826069542268e-02  2.5745098079041115e-02  4.9073259208235284e-02  1.8618665947683966e-02  3.7459264935554681e-02  6.1186721746875374e-02 
 5.8383074423755954e-01  6.9032207991098771e-01  5.4507744349529375e-01  8.0452859617384065e-01  6.4179530751556191e-01  5.0013081005561866e-01 
 1.5047242760856977e-01  1.2487511847681036e-01  1.2777118479286764e-01  1.0034788919381597e-01  1.0245279390445169e-01  1.0349490266038122e-01 
-1.0915428749961728e-01 -1.4064965517683151e-01 -1.1091773959937468e-01 -1.7172710811547831e-01 -1.4366244029965033e-01 -1.1223747126815269e-01 
 2.5304467517251117e-01  2.3851992612941636e-01  2.3705792874781739e-01  2.2549395005388839e-01  2.1704015257730302e-01  2.0914753810927600e-01 
-3.6419716525848156e-01 -3.7628916160416259e-01 -3.7092514682064626e-01 -3.8615738808602440e-01 -3.8209410535815769e-01 -3.7491528020326098e-01 
-5.5701011382946544e-02 -7.4129191511472819e-02 -7.3434092027649250e-02 -9.5874423501922476e-02 -9.3874958509225490e-02 -8.8112793957971600e-02 
 9.2424346364292931e-01  7.6882304248543110e-01  9.1999916314670049e-01  6.3213498112373456e-01  7.6725719206758813e-01  9.0972237853981353e-01 
 7.7999307170534701e-02  8.7701828798293927e-02  1.2533473391013580e-01  9.0628318406601446e-02  1.3153590298984036e-01  1.6923441711958598e-01 
 1.1425726268432196e-01  1.2135871479673985e-01  1.0471770714983450e-01  1.2602207100350316e-01  1.1020605281016216e-01  9.5126755187190784e-02 
 1.5828720340062657e-01  2.1085064546102950e-01  2.4357756064881686e-01  2.5216798647452876e-01  3.0112221573405207e-01  3.5079523719760441e-01 
-8.0774324943569620e-02 -1.2529615711603731e-01 -1.0681442277482318e-01 -1.6387770873807533e-01 -1.4987375046754253e-01 -1.3079395251491782e-01 
 1.1950780191530136e-01  1.7345380807109534e-01  1.3345765680848018e-01  2.2015206866111847e-01  1.8649054103022666e-01  1.4571673236408614e-01 
-6.9872143047658053e-01 -5.8662736945541405e-01 -6.8684307735558048e-01 -4.8635573224237305e-01 -5.7480800907291996e-01 -6.7010374849856247e-01 
 3.0629591410538082e-01  2.9668514822917430e-01  3.1346879109204645e-01  2.8645763790135148e-01  3.0436987093443524e-01  3.1616836076990901e-01 
-2.1291858361639251e-01 -2.1770673039841495e-01 -2.3269251802492419e-01 -2.1670700160804493e-01 -2.3458126257739931e-01 -2.5048313098379477e-01 
-2.6346905833742751e-01 -2.7094682216936916e-01 -2.3280641509937827e-01 -2.4702094836850938e-01 -2.1690779416642467e-01 -1.7851190104624490e-01 
-2.4772838812513975e-01 -2.8174330540714404e-01 -2.7780200859167925e-01 -2.8086334816816766e-01 -2.9968231531849299e-01 -2.9804013921474409e-01 
-1.3144499393571962e-01 -4.0809988242366577e-02 -6.5240243287100971e-02  3.4509628816689071e-02  2.3325469312147518e-02  4.7301026098229256e-03 
-1.8504033978609968e-01 -1.2299008925022945e-01 -1.6135281664969886e-01 -6.4737408892064002e-02 -9.1470147073666047e-02 -1.3144480881029338e-01 
 8.1728722235889842e-05 -1.4290045624775706e-03 -5.5736792526222906e-02  1.0776957484186448e-05 -2.9853801920187273e-02 -9.4541716521689759e-02 
-7.2103238056814081e-02 -5.9091121528237853e-02 -1.1499980578644711e-01 -4.5325979334528366e-02 -9.7792709663116248e-02 -1.5751943975136265e-01 
 2.9288746975310875e-01  3.0482188893948009e-01  2.9202600519017491e-01  3.1616827934224928e-01  3.0436984101756454e-01  2.8645756460395372e-01 
-2.8302042548516482e-01 -2.7676899481823980e-01 -2.9464793730021566e-01 -2.6926689770240242e-01 -2.8726108917986481e-01 -3.0423506167824577e-01 
 2.0397551310975073e-01  1.8404349041741713e-01  2.1907181220752087e-01  1.5903116616526047e-01  2.0028601271627747e-01  2.4089177287409469e-01 
 3.3754489497589724e-01  3.1765185414337233e-01  3.5130116041518350e-01  2.9514772023953201e-01  3.3286724620404856e-01  3.6293293385542152e-01 
-1.8070447282623547e-01 -2.3851640454370604e-01 -2.1518202829927854e-01 -2.7351625681818076e-01 -2.7325019303433562e-01 -2.4254247427485745e-01 
-1.8820813017225746e-01 -1.5699552934280919e-01 -1.9322892917148757e-01 -1.2037290205788148e-01 -1.6055102992384779e-01 -1.9602386960230161e-01 
-2.2593779817269219e-01 -2.1166909207622661e-01 -2.4102665311692253e-01 -2.0554356018726042e-01 -2.3035615126178613e-01 -2.4890773159386365e-01 
 7.8000343251100848e-02  5.5982521550681917e-02  7.3304921298141090e-02  3.2772963244173108e-02  4.7687907250892517e-02  6.5572617207506886e-02 
 2.1495027657314869e-01  2.2665344645342064e-01  2.3218698455485021e-01  2.3780275507658488e-01  2.4289553637654038e-01  2.4751191155966892e-01 
-1.9629060471211410e-01 -1.7578840340531984e-01 -2.5234480090798589e-01 -1.5332834139071469e-01 -2.2608078241579935e-01 -3.0769983625846925e-01 
 1.4035958270147161e-01  1.2129585968285458e-01  1.4611976435173901e-01  1.0034789473644298e-01  1.2487512442781690e-01  1.5047242925875243e-01 
 2.5859141417566195e-01  2.8466891330168637e-01  2.6437795334854253e-01  3.0087841608093363e-01  2.9244427101196707e-01  2.4782636336981476e-01 
 1.0220537443711873e-01  8.8484277649067744e-02  4.9342313452510597e-02  7.2678147475677052e-02  3.8401674511756800e-02  1.5233280974159354e-03 
 3.7188906520720233e-01  3.6826758791610742e-01  3.8435421051343699e-01  3.6293302753774481e-01  3.8195630936989594e-01  3.9355020925331280e-01 
 2.4319955620278688e-01  2.2764579444399302e-01  2.2110852383784307e-01  2.1073784243802818e-01  2.0591114279168263e-01  1.9704591071692926e-01 
-6.3334205305477131e-01 -7.5848525448739301e-01 -7.6364785683680969e-01 -9.0096218511085180e-01 -9.0626792948650325e-01 -9.0516368544959092e-01 
-1.2323633209239866e-01 -1.6395632297065466e-01 -1.8197919817068461e-01 -2.0224056766461979e-01 -2.1753517388293553e-01 -2.2194535588039160e-01 
 2.8409204154173206e-03 -1.5934760627063015e-02  4.0578707598147900e-03 -3.4137882042219160e-02 -1.7660546059565466e-02  4.9895838643478950e-03 
 1.2219294164967731e-02  2.8472078831030093e-02  1.2551657358469321e-02  4.4793655932976344e-02  2.6115195690289621e-02  1.1451104463765641e-02 
-1.2893044463704406e-01 -1.5528073482880414e-01 -1.3743606305559947e-01 -1.8490404714705996e-01 -1.6500283811855743e-01 -1.4264265222246431e-01 
-3.9229215480661223e-01 -3.8473446541695716e-01 -3.9038266059764060e-01 -3.7491533694126811e-01 -3.8209412752408273e-01 -3.8615742840330219e-01 
 5.2908837429317497e-03  1.5237792152526187e-03 -2.4491179241784293e-03  2.0960492047039506e-05 -2.1340037631188222e-03 -7.6324371334348688e-03 
 1.9545517426993528e-01  1.7838053566943377e-01  1.2621521287007365e-01  1.5955445187598799e-01  1.1211829388536185e-01  6.5216678156002308e-02 
 9.7303298335476518e-01  7.9614055769344272e-01  9.4456042591272071e-01  6.4308791992513914e-01  7.7255324100959888e-01  9.1190842607874500e-01 
-1.2323659517730123e-01 -1.8197937616299628e-01 -1.2833541681351052e-01 -2.2194570581617959e-01 -1.7773332719229984e-01 -1.2692312652500326e-01 
-7.0741719597075337e-01 -7.0974009977685981e-01 -7.9114246262557453e-01 -6.9998999078144974e-01 -7.9061938672852272e-01 -8.8316068436007900e-01 
-2.2729622863236093e-01 -1.6397833385753607e-01 -2.0663156683503833e-01 -1.0615442658280078e-01 -1.4673916474932228e-01 -1.8569570226098275e-01 
-1.1604686677053498e-01 -5.9356752934188052e-02 -1.0005301975934520e-01 -2.8233713511942152e-08 -4.8054611495906431e-02 -8.1054360161995562e-02 
-1.6447416399158446e-01 -1.4263674651551628e-01 -8.4818499212126433e-02 -1.1812194894034816e-01 -6.4858716619224890e-02 -1.5854498062421285e-02 
 8.8685464894037763e-04  5.4102112359393590e-03  1.1400866360627041e-02  1.2265392788242520e-02  1.9282954752083522e-02  2.1335628238231145e-02 
-3.3574157427257356e-01 -3.3646000417698579e-01 -3.4927376497129770e-01 -3.3219123154853425e-01 -3.4613925591296862e-01 -3.5864276574310028e-01 
-1.8569570285419079e-01 -1.4673919591163190e-01 -1.2566137469965077e-01 -1.0615443242058425e-01 -8.9802951348547794e-02 -7.2103232946475027e-02 
-3.3574149048753149e-01 -3.4927383837297565e-01 -3.5201665415555000e-01 -3.5864273080858672e-01 -3.6436887742747504e-01 -3.6631502426298274e-01 
 2.7354991601464940e-01  3.8734532162096635e-01  3.5273905926235860e-01  5.1719935565628183e-01  4.8081200734221602e-01  4.3855578922302174e-01 
 2.1859584336630727e-01  1.9818747723640659e-01  1.7051601239922753e-01  1.7789297962782633e-01  1.5373277213454664e-01  1.2643569974870955e-01 
 5.2433746625829745e-02  1.1847627523640447e-01  4.1488337096827511e-02  1.7349821531879875e-01  1.1163643491508786e-01  2.8868764880809611e-02 
 1.6445514837901323e-01  1.7741125122903775e-01  1.4936494692554733e-01  1.8870595708928359e-01  1.5967457708394858e-01  1.2997138163948554e-01 
 2.2546053922580417e-01  1.1892585333227371e-01  1.7929769379415594e-01  2.7151971845259148e-02  8.4334327442557824e-02  1.3897687946201553e-01 
 2.6203313574176840e-01  2.5673668296250635e-01  2.3392978445015145e-01  2.5304464925016629e-01  2.3705789339952735e-01  2.0914754481287759e-01 
 5.0013074962672288e-01  6.1325520325260485e-01  4.5993919428039215e-01  7.3731016109291314e-01  5.6263025872406747e-01  4.1549151305337079e-01 
-3.3759204767130707e-01 -2.6358907464427644e-01 -3.2386922259518502e-01 -1.9629059292882128e-01 -2.5234475871657247e-01 -3.0769983958995589e-01 
-3.0423507912703962e-01 -2.8726107239760695e-01 -3.0004248808328615e-01 -2.6926693186414746e-01 -2.8336857254133080e-01 -2.9388731208397262e-01 
 3.2143810102148507e-01  2.8234303738425648e-01  2.9691360104394887e-01  2.3659114800530820e-01  2.5534475727008743e-01  2.7110078046369679e-01 
 3.8823128064981832e-01  2.3068793824459730e-01  2.8927697548098752e-01  1.0738918547644784e-01  1.5156146541719206e-01  1.9771347747780962e-01 