<VTKFile type="UnstructuredGrid" version="1.0" byte_order="LittleEndian" header_type="UInt64">
<UnstructuredGrid>
<Piece NumberOfPoints="7326" NumberOfCells="4884">
<PointData>
<DataArray type="Float64" Name="uy" NumberOfComponents="1" format="ascii">
-7.5774097120566912e-06 -6.3017382260584568e-06 -5.6221103158335035e-06 -5.1434284446309515e-06 -4.5039171545136581e-06 -3.9659175466538928e-06 
-3.1529998000431064e-05 -3.2531801807359925e-05 -3.6264301564223521e-05 -3.3280311722275461e-05 -3.7013574936126200e-05 -4.1153500801609462e-05 
 2.4487952222026274e-05  2.0156904950069709e-05  2.2423666960094899e-05  1.6125346225502450e-05  1.8474452538303034e-05  2.0525230129034485e-05 
 2.1764304729293171e-05  2.1313461789589133e-05  2.5379345447131907e-05  2.0850914233807604e-05  2.4836286955619647e-05  2.9314317548360482e-05 
 9.4474938048420980e-05  8.9626030841631548e-05  1.0039196868601845e-04  8.5088169812364686e-05  9.5380056175074031e-05  1.0646307713939389e-04 
 4.8420230556482316e-04  4.8405780031167411e-04  4.8139195415314279e-04  4.8319336977767049e-04  4.8108363358650839e-04  4.7825641628725427e-04 
-2.8152970218634375e-06 -1.8959463395386282e-06 -2.4483636452533830e-06 -1.1397098086450419e-06 -1.6115874995489426e-06 -2.2134060247537099e-06 
 7.5580371021466633e-06  7.8097808161534629e-06  1.0774435577920504e-05  8.2059201456429990e-06  1.1076786860164742e-05  1.4460989961654036e-05 
 8.7138171558014799e-07  1.5455753104580471e-06  1.4557242399897140e-06  2.4475229640841601e-06  2.3738906527639981e-06  2.1888468580367426e-06 
 2.8880894791545082e-04  2.7802417788058166e-04  2.8556985589647224e-04  2.6737551195751326e-04  2.7505142655766306e-04  2.8279628711236088e-04 
-1.4717472433101991e-04 -1.5200641807997463e-04 -1.4047936091513967e-04 -1.5685592364392999e-04 -1.4524960978449774e-04 -1.3426833180115415e-04 
-2.5142144038725470e-04 -2.3655773685486419e-04 -2.3797091548779918e-04 -2.2217332064110917e-04 -2.2333458048324860e-04 -2.2470876193615781e-04 
-2.5864733579375405e-05 -2.2450816781364206e-05 -2.6455314892368423e-05 -1.9447390868156440e-05 -2.3049573640226953e-05 -2.6842259320167500e-05 
-2.6250045861550401e-04 -2.7473071958506563e-04 -2.8122701122933327e-04 -2.8694057022125093e-04 -2.9351567942585211e-04 -3.0027264243470166e-04 
-1.0700852839603326e-04 -1.0356508438984440e-04 -1.1553493051770847e-04 -1.0039909399869536e-04 -1.1189402201157827e-04 -1.2434728981718256e-04 
-2.5703327657711806e-07 -5.6666404557358925e-07  1.0768888809654875e-06 -7.8659367299942692e-07  8.3740276223271540e-07  2.8071155353398384e-06 
 7.0914784427458093e-06  7.1819690774326250e-06  4.7661417222503545e-06  7.3427411165955341e-06  4.8964005891085292e-06  2.8071155353398384e-06 
-4.0105408145904125e-06 -4.6294216772167268e-06 -4.4134518352002209e-06 -5.1486154765138245e-06 -4.9419939857045366e-06 -4.6291677625510782e-06 
-2.3017382441451243e-04 -2.2279674246017655e-04 -2.1813111815885904e-04 -2.1547924393771454e-04 -2.1072295792551145e-04 -2.0645087961733571e-04 
 5.0871342656849151e-04  5.1537165570884891e-04  5.0845323104944365e-04  5.1881981186111003e-04  5.1587286427475605e-04  5.0625377856240489e-04 
-4.1143104648108317e-07 -1.2040451144495521e-06 -6.7075438739234463e-07 -2.2356935473173430e-06 -1.5781450264671313e-06 -1.0262447993640160e-06 
-3.0863951160225371e-04 -2.9440124677886076e-04 -2.9428860523218444e-04 -2.8032866439692370e-04 -2.8007245362481168e-04 -2.7996571449599836e-04 
 1.1835142492327585e-05  1.2483271768234568e-05  9.7054324227239366e-06  1.3142365511036084e-05  1.0288001071338865e-05  7.8749924392343793e-06 
-5.0701371870451371e-04 -5.0721639789770188e-04 -5.1510670517456120e-04 -5.0625377767658428e-04 -5.1587286334540115e-04 -5.1881979380387962e-04 
 2.2657432774639476e-07  3.1829272601332808e-07  3.6773284409081190e-07  3.5134059834005315e-07  4.7298814902350120e-07  5.0057189504317976e-07 
 3.8490842701333441e-04  3.9850635011348076e-04  3.9871549423344194e-04  4.1162243371567096e-04  4.1180791845925221e-04  4.1187957990222198e-04 
-2.1132128235281376e-05 -2.5736132062312758e-05 -2.2625657839070619e-05 -3.1008210168202244e-05 -2.7509701216984187e-05 -2.4231028653859703e-05 
 4.3701500237909347e-04  4.2410605316597108e-04  4.5223327595196366e-04  4.1021318973035055e-04  4.3958723543380783e-04  4.6580210973050276e-04 
 8.2059201456421842e-06  8.7895059109026194e-06  1.1594633961473578e-05  9.5505355735766902e-06  1.2234779879393231e-05  1.5432595120503584e-05 
-5.0985124055848080e-05 -5.6510135582052204e-05 -5.1490771043910214e-05 -6.2292541133482986e-05 -5.6824096373122742e-05 -5.1821044582251455e-05 
-2.4523747862048340e-04 -2.3118505582258670e-04 -2.4103316560660298e-04 -2.1738938562097617e-04 -2.2713717875652646e-04 -2.3707194409663666e-04 
 2.2118434817933926e-04  2.1205308227907881e-04  2.0865360845211120e-04  2.0304048658855789e-04  1.9959198412859415e-04  1.9658617785637687e-04 
 3.5134059834003907e-07  3.5076235893789759e-07  5.2593431681123774e-07  3.2255625909903724e-07  5.3116821113431664e-07  6.7743213510751184e-07 
-1.4406548318733411e-04 -1.3190429902374532e-04 -1.3137853272426447e-04 -1.2054889510515777e-04 -1.1982457926653533e-04 -1.1922639880893824e-04 
-4.3343867234174333e-04 -4.2463062567633226e-04 -4.5253664336635305e-04 -4.1505214741776941e-04 -4.4381945734791787e-04 -4.6932900172911386e-04 
-3.2484170725453654e-05 -2.8579214156818586e-05 -2.9937077377548831e-05 -2.4852697367741511e-05 -2.6159959817883943e-05 -2.7239826948317553e-05 
 5.7696212472344057e-06  4.0467621631884022e-06  6.3193671380041149e-06  2.1882096803332419e-06  3.9836497090041455e-06  6.5481191030342510e-06 
-3.5808626228283313e-06 -3.8455486606451348e-06 -4.1411180418616550e-06 -4.0105408145905954e-06 -4.4134518352002285e-06 -4.6291677625510782e-06 
 4.3704823734908889e-04  4.5412080162945560e-04  4.2640425378207935e-04  4.6932900200979277e-04  4.4381945635320254e-04  4.1505214880847505e-04 
-5.3079817439754501e-05 -5.1343188322701908e-05 -5.8996654606855032e-05 -4.9763783913067229e-05 -5.7090397047597048e-05 -6.5234576140230812e-05 
-2.6753939194832169e-04 -2.6067435750826948e-04 -2.5666035614773340e-04 -2.5390105753888648e-04 -2.4967218274464433e-04 -2.4598511395472716e-04 
 1.3669965896245966e-04  1.3802523610336045e-04  1.2281699663408774e-04  1.3989380058200521e-04  1.2470892096684910e-04  1.1049477347749646e-04 
-1.0907744980392359e-04 -1.0854412732329763e-04 -1.2395462103341145e-04 -1.0870678912902059e-04 -1.2319753326146018e-04 -1.3989380038851410e-04 
 4.7865905396897706e-04  4.7178203497081549e-04  4.8415635908060820e-04  4.6387716339437308e-04  4.7763340853631625e-04  4.8933727604073059e-04 
 1.6477329226038923e-05  2.0086886620250366e-05  1.7369386163444069e-05  2.4200216754612487e-05  2.1038556199126081e-05  1.8243891806906745e-05 
-3.8508536019790928e-04 -3.9367048216900372e-04 -3.8451758151552911e-04 -4.0218944362023734e-04 -3.9335860066231704e-04 -3.8405910260657348e-04 
-2.6565268456017159e-06 -3.1867341314665616e-06 -3.1953398015235731e-06 -3.5808626228284410e-06 -3.7408042252704964e-06 -3.6794491266686702e-06 
-2.2134060247537451e-06 -3.5895691745816868e-06 -3.3292711766600708e-06 -5.2707227803173784e-06 -4.9627076482319453e-06 -4.7837806981208749e-06 
-9.5642696785869688e-05 -9.2428410068650955e-05 -1.0022339378245325e-04 -8.9396688046867618e-05 -9.6840822385751011e-05 -1.0476353893569426e-04 
-3.6710511428363886e-06 -2.2571138920993921e-06 -2.2912857432846184e-06 -1.0333824084702514e-06 -1.1604664349071153e-06 -1.2546852840868226e-06 
-1.0844003401772107e-04 -1.0282442636225578e-04 -9.9210589569163814e-05 -9.7249782472960995e-05 -9.3806104366650416e-05 -9.0632286821558700e-05 
-1.0037351839088672e-04 -1.1612937488063036e-04 -1.0080578244265121e-04 -1.3310679702038773e-04 -1.1637044131219853e-04 -1.0183520287444678e-04 
 4.7825641628725427e-04  4.7481820735446461e-04  4.7836869690732271e-04  4.7091284781671276e-04  4.7460693933037745e-04  4.7776949004461156e-04 
 2.1654423424871288e-06  2.9184450217540203e-06  2.8307644874135720e-06  3.5545490978345804e-06  3.4895303247371780e-06  3.1587279001978300e-06 
 9.7574068472838335e-07 -1.9377019204940056e-06  5.7456238345318920e-07 -4.5537072689593019e-06 -1.9601686367686367e-06  2.5740549040156887e-07 
 5.7354385956445663e-06  5.2128570841042387e-06  7.2611269548438430e-06  4.4608189041097396e-06  6.2992177926819995e-06  8.7589126476868632e-06 
 2.5130752223430434e-05  2.8718853739845266e-05  2.4154228730702567e-05  3.1898015021346734e-05  2.7375159190753740e-05  2.3165172893819425e-05 
 3.4430365901655926e-05  2.9267729652316262e-05  3.1298307139768856e-05  2.4487952222027544e-05  2.6587619917299780e-05  2.8445161503710009e-05 
-4.6443263074203747e-05 -4.9521488289591787e-05 -5.1216004643834510e-05 -5.2807150211486835e-05 -5.4580298649599038e-05 -5.6129286696221089e-05 
 7.8445553420782398e-05  7.2538217549070124e-05  7.1355472722891522e-05  6.7119734106333738e-05  6.5934534251174586e-05  6.4629586515905349e-05 
 8.6987285695625332e-06  1.0191670406762383e-05  8.2829953429731184e-06  1.1835142492327707e-05  9.7054324227239027e-06  7.8749924392343793e-06 
 1.0236042924614899e-04  1.0046552964972656e-04  1.1160141027179321e-04  9.8744281461562175e-05  1.0956018041858444e-04  1.2121748702035310e-04 
-4.7190220240079134e-04 -4.7402405126397893e-04 -4.7032446595845134e-04 -4.7575355359429094e-04 -4.7230215655964564e-04 -4.6844373769617344e-04 
-6.2130378711903879e-07 -4.6998559330616381e-07 -6.4402941659765785e-07 -1.5113580656037891e-07 -4.0408664132274063e-07 -5.7899797590505412e-07 
-1.1774446431403431e-04 -1.2587329152822824e-04 -1.2271834282396606e-04 -1.3451084227301480e-04 -1.3098273674820379e-04 -1.2762853934688968e-04 
-3.7146112144467652e-06 -2.8713331467902086e-06 -3.9047709285410117e-06 -2.1719329309304235e-06 -3.0177419891425041e-06 -4.0210883347946827e-06 
-8.0577224773702136e-07  6.2071895566038319e-07  7.0912887191485999e-07  2.3330879702800591e-06  2.2052198119094305e-06  2.0606736396437626e-06 
 1.0422356018319058e-06  9.4175618902215280e-07  1.0849622809934771e-06  8.2157528962006214e-07  8.8360455186971023e-07  9.9952605627356199e-07 
 2.5130752223430373e-05  2.4154228730701794e-05  2.0839454347817939e-05  2.3165172893819649e-05  2.0186722780381058e-05  1.6913613274695332e-05 
 1.3980839565723175e-04  1.3109534410737664e-04  1.3675667146763050e-04  1.2278102751042181e-04  1.2835732323173370e-04  1.3387302311836590e-04 
 4.7350631661260544e-04  4.7565891430356602e-04  4.7225695268469513e-04  4.7747936566948509e-04  4.7407707373423350e-04  4.7026866028675467e-04 
-3.2154784567836267e-04 -3.1083285769652717e-04 -3.2830644044903911e-04 -3.0027264243471564e-04 -3.1768117375313584e-04 -3.3507387680175888e-04 
 1.0000398784676021e-04  1.0062887920996399e-04  1.1592765996276088e-04  1.0183520277576247e-04  1.1637044128701070e-04  1.3310679691854105e-04 
 2.2266817825884908e-05  2.2043022261239000e-05  2.5852690953403121e-05  2.1764304729294631e-05  2.5527032986311028e-05  2.9739906688725287e-05 
 8.2299933453432923e-05  7.6772116757577554e-05  8.3661650772193469e-05  7.1557475251604055e-05  7.8181433562168036e-05  8.5088169812359591e-05 
 5.4479014034107941e-06  3.7801160508757677e-06  5.3026832105823825e-06  2.3729398017572661e-06  3.5836313261527592e-06  5.0876588844294583e-06 
 8.0460890256190587e-07  1.6639479340491820e-06  1.5852667137900259e-06  2.6852194894485641e-06  2.6643677360649184e-06  2.5266423759493941e-06 
 4.1135189418991386e-04  4.0786456907315928e-04  4.0547419395844031e-04  4.0444536079505856e-04  4.0195364375990110e-04  3.9928743291845744e-04 
 7.5958132953827669e-05  8.3132294324938272e-05  7.7297337865498751e-05  9.0548958568227616e-05  8.4249803775084196e-05  7.8445553420782547e-05 
 5.7354385956445054e-06  7.2752285581094585e-06  4.9402546195221388e-06  9.0455487223816201e-06  6.1127894087121623e-06  3.8416422106688081e-06 
 3.1579393922410632e-05  3.4166508923219821e-05  3.4698215383080327e-05  3.6651109029996401e-05  3.7431664707889508e-05  3.8081400829007623e-05 
 1.5432595120503615e-05  1.2234779879392915e-05  1.6537898191160270e-05  9.5505355735769256e-06  1.3434107978637915e-05  1.7818793303519837e-05 
 1.0932107929524926e-05  7.8274473092608914e-06  9.6751426512034511e-06  5.0451542348119092e-06  6.9276189637518169e-06  8.5406888480685008e-06 
-4.4879831112338371e-04 -4.3924730987398783e-04 -4.3783177827544064e-04 -4.2869722789024689e-04 -4.2747263267552018e-04 -4.2609777982033944e-04 
 7.4768389874653385e-07 -1.4428027609662224e-06  6.2041923882460702e-09 -4.1455163827454575e-06 -2.3576450450836876e-06 -9.4605873724067993e-07 
 4.9316138298065173e-06  7.7098399581520913e-06  6.5457776951236975e-06  1.0958068932455026e-05  9.7209753426707420e-06  8.1179147893052842e-06 
-4.4497301960313317e-04 -4.5222961824619188e-04 -4.4772929769528499e-04 -4.5903723402183140e-04 -4.5501970547704801e-04 -4.5017958462796522e-04 
 1.1049477347749645e-04  1.2470892096684501e-04  1.0924490434078021e-04  1.3989380058200519e-04  1.2319753321256960e-04  1.0870678863068761e-04 
-1.8322863553505901e-06 -2.4257062241205523e-06 -1.1305588285765141e-06 -2.9637885243209376e-06 -1.7876380510542246e-06  0.0000000000000000e+00 
-4.1938287728484190e-05 -4.0956745729378407e-05 -4.7330011185547188e-05 -4.0069561455636979e-05 -4.6210175129724612e-05 -5.3079817439754352e-05 
 8.5088169812359794e-05  8.3088092911849087e-05  9.3537758358200112e-05  8.1297033057235664e-05  9.1396567001587843e-05  1.0236042924614876e-04 
-3.0715170899481519e-06 -3.5171868930602289e-06 -9.3240378775646197e-07 -4.1455163827452965e-06 -1.4428027609662738e-06  7.4768389874655683e-07 
-2.6020616922766468e-05 -2.3025813277744320e-05 -2.1586231002774285e-05 -2.0308562286962941e-05 -1.8870685942683863e-05 -1.7127558307479377e-05 
-5.1486154765136983e-06 -5.2376343190355010e-06 -5.5630214249793274e-06 -5.2429146826285898e-06 -5.6482786146440918e-06 -5.8336785094511361e-06 
 4.4640480173181354e-05  3.9431561690906829e-05  4.1232211155440383e-05  3.4430365901657532e-05  3.6443780989897512e-05  3.8081400829007623e-05 
-4.5537072689595492e-06 -6.5619261406660002e-06 -3.9842614630092900e-06 -8.2015126275269311e-06 -5.6900818729332103e-06 -3.4694720981752001e-06 
 4.1271966519469993e-05  4.2386966044901175e-05  3.6870573790803795e-05  4.3366375825637759e-05  3.7921014173773664e-05  3.2921439065376320e-05 
-2.2052765806997208e-05 -2.3131215389684532e-05 -2.6170437246407218e-05 -2.4354261627717189e-05 -2.7220273426377799e-05 -3.0688202037619546e-05 
-1.4049683407226711e-05 -1.5561943819798983e-05 -1.2480272600638862e-05 -1.6848416464958282e-05 -1.3803332065324561e-05 -1.1052330686826284e-05 
-4.4851501183999862e-04 -4.5899002426401505e-04 -4.5581007961030681e-04 -4.6849990619117910e-04 -4.6546380946883105e-04 -4.6216017559231855e-04 
 1.2557687122483277e-04  1.2328797234778096e-04  1.3562621548522015e-04  1.2121748702035981e-04  1.3320622967344901e-04  1.4601193196524213e-04 
-3.0110750372464848e-04 -3.0128990650476627e-04 -3.1027145681672712e-04 -3.0177889801687814e-04 -3.1050226720860072e-04 -3.1936229948420448e-04 
-2.2455342761413308e-05 -1.7861397993775896e-05 -1.8425910515595081e-05 -1.3315161996561829e-05 -1.4193897620999385e-05 -1.4885755641180115e-05 
-4.1143104648109958e-07 -8.9635660473923014e-07 -1.2040451144496288e-06 -1.4512792329861835e-06 -1.8137929043054909e-06 -2.2356935473173634e-06 
-4.1458244215602204e-05 -4.1890960316913352e-05 -3.6767053487594740e-05 -4.2161894827165692e-05 -3.7196041551994072e-05 -3.2552893839733006e-05 
-4.1619909566542769e-04 -4.1799561935798894e-04 -4.0939618434919039e-04 -4.1976530961705839e-04 -4.1106488900069819e-04 -4.0218944362022460e-04 
 3.1898015021346348e-05  3.5009423980549646e-05  3.0200182534324772e-05  3.7866671476654118e-05  3.3055272572646997e-05  2.8583298498442758e-05 
-1.2743096170800624e-04 -1.3591025532721395e-04 -1.2316271597885879e-04 -1.4462161146386296e-04 -1.3148569571775156e-04 -1.1922639880893824e-04 
-3.3550442160549306e-05 -3.8140239863927918e-05 -3.3818963599289059e-05 -4.3049204116170154e-05 -3.8286885556484912e-05 -3.3977790564474849e-05 
-7.7198785107070328e-07 -2.3350300967883902e-07 -7.9253324168901431e-07  1.6500606147783495e-07 -2.4784717023870595e-07 -8.6079218025995281e-07 
 8.0460890256190746e-07  8.6313338004762147e-07  1.6639479340492777e-06  8.4845849796163737e-07  1.6798081865787760e-06  2.6852194894484908e-06 
 3.2847852903900825e-06  4.0935999713635280e-06  3.3924954428315936e-06  4.7643203012517129e-06  4.1516789963252844e-06  3.4697310715592422e-06 
-3.0443320767956306e-04 -3.2055363702420330e-04 -3.0646535958123779e-04 -3.3654969162189870e-04 -3.2258493396962885e-04 -3.0863951160225403e-04 
 3.0110019567410022e-06  2.7296504699686433e-06  2.0785468427789488e-06  2.2539207619519896e-06  1.7178803659764455e-06  1.3541756714868058e-06 
-1.9668808500511771e-05 -2.1386196904533726e-05 -2.3913501456183099e-05 -2.2843403403444985e-05 -2.5437805195534818e-05 -2.8308871028804951e-05 
 3.0898319678666745e-04  3.1877446286262515e-04  3.2186461177028021e-04  3.2862660583770872e-04  3.3149585140485299e-04  3.3464258743322317e-04 
 2.9714426065808601e-05  2.5563540852962997e-05  2.6506472084987936e-05  2.1651897960746037e-05  2.2766554097633731e-05  2.3603615508052025e-05 
 2.8332631140064839e-06  1.9351039624089417e-06  1.1634468258016384e-06  7.4768389874641622e-07  6.2041923882269813e-09 -9.4605873724067993e-07 
-5.0713402465652534e-05 -5.5608679480521036e-05 -5.0943199695086683e-05 -6.0677958687528779e-05 -5.5623327117944900e-05 -5.0985124055848080e-05 
 2.8332631140065059e-06  3.3113936554387941e-06  1.9351039624089700e-06  3.5953078799838326e-06  2.3629026050661472e-06  7.4768389874655683e-07 
-1.5844767955356954e-04 -1.5232905389721870e-04 -1.4872056605455371e-04 -1.4620967271408754e-04 -1.4268899899343100e-04 -1.3948539212359202e-04 
-3.6274091498353139e-04 -3.6388595933132433e-04 -3.4900171612093972e-04 -3.6506996145095399e-04 -3.5016848785087389e-04 -3.3507387680175888e-04 
 3.8738166867906863e-05  3.4086819245992360e-05  3.4865212815000986e-05  2.9714426065809868e-05  3.0630032096775734e-05  3.1341725840136595e-05 
-1.4106506345367342e-04 -1.3524445326840073e-04 -1.3155181461042197e-04 -1.2933551508960989e-04 -1.2585839954384412e-04 -1.2259323044039983e-04 
 1.9211666287635753e-04  2.0150894887179099e-04  1.9466666048148615e-04  2.1109970670851879e-04  2.0394262857120239e-04  1.9721758973145575e-04 
 1.2562766807173364e-06  5.3407682839821864e-06  1.9517230449568838e-06  9.1074600084434864e-06  5.6844996960192735e-06  2.5305840606137594e-06 
-5.3349849298252358e-06 -5.6421976571143658e-06 -5.4692989038166400e-06 -5.8336785094512869e-06 -5.7627374553259458e-06 -5.4000005598181847e-06 
-4.4949890852963297e-06 -5.0300095091062872e-06 -4.1298422471924259e-06 -5.4000005598181762e-06 -4.6470351321259552e-06 -3.4938638142003491e-06 
 1.1078233389130590e-04  1.1664804915585389e-04  1.0952719592084039e-04  1.2278102751041948e-04  1.1545569488941683e-04  1.0819651122470724e-04 
-2.1634650759693887e-06 -2.5353571727274679e-06 -3.0107132083106708e-06 -2.6565268456018895e-06 -3.1953398015235866e-06 -3.6794491266686702e-06 
-5.4113271896234934e-08  2.8475185466101319e-07  7.2148131533423727e-08  5.0057189504315287e-07  4.0633546173239119e-07  1.6500606147794099e-07 
 2.5385629148946002e-07  4.2846961181681064e-07 -4.0179287383921754e-08  5.4367686338019774e-07  1.6052508756675773e-07 -4.1143104648107459e-07 
-3.6944346388218408e-04 -3.7499611314249445e-04 -3.7731312135464692e-04 -3.8038268779416165e-04 -3.8262377665679228e-04 -3.8508536019790933e-04 
 3.0801769081099359e-04  3.3033187973691825e-04  2.9808999517926264e-04  3.5218257701555511e-04  3.2009589625436402e-04  2.8869311041491107e-04 
 2.2584791451072504e-04  2.1326986065697378e-04  2.2504792934368160e-04  2.0091571617498092e-04  2.1248568781540147e-04  2.2447273547164257e-04 
-6.5234576140230975e-05 -6.3253314427272656e-05 -7.2101461488080436e-05 -6.1441692770124344e-05 -6.9930832891349249e-05 -7.9304133264654383e-05 
-4.7628195672976632e-04 -4.7866872489601221e-04 -4.6230804694550150e-04 -4.8077296988363350e-04 -4.6460526271021891e-04 -4.4616139894460395e-04 
-2.3707194409663704e-04 -2.4972744187881299e-04 -2.5345501457134156e-04 -2.6250045861551382e-04 -2.6624505495289854e-04 -2.7026045140119402e-04 
 1.6913613274695315e-05  2.0186722780380376e-05  1.5985775265222205e-05  2.3165172893819520e-05  1.8955670719296266e-05  1.5095736969416462e-05 
-2.4159877268418460e-07  4.2632734223097008e-07 -6.1602082635354296e-08  1.0033065801001438e-06  4.2743162103371208e-07  4.1730880560771327e-08 
-4.7897951165212755e-04 -4.8587021322877660e-04 -4.8236709190967501e-04 -4.9141312228233075e-04 -4.8815852913425219e-04 -4.8446516398574415e-04 
-1.4912536314916886e-04 -1.2780523297841392e-04 -1.4412804012424175e-04 -1.0907744980393013e-04 -1.2395462103341194e-04 -1.3989380038851410e-04 
 4.3366375825637048e-05  3.9337268836179182e-05  3.7921014173773752e-05  3.5677778933109979e-05  3.4360119421875420e-05  3.2921439065376320e-05 
 5.6506802141911166e-05  5.0408642690943869e-05  5.2619167222068358e-05  4.4640480173183420e-05  4.6936838921758727e-05  4.9002908998497983e-05 
-3.2484735007400778e-05 -2.9841538851680894e-05 -2.7833411262823665e-05 -2.7405131991708544e-05 -2.5579772998170827e-05 -2.3495494872482532e-05 
-1.3948539212359180e-04 -1.3331052668196896e-04 -1.2975986074687901e-04 -1.2716883926521609e-04 -1.2372906547919392e-04 -1.2058345607604253e-04 
 2.1882096803326688e-06  1.6740407703931720e-07  1.4139749897679499e-06 -1.7167180865525253e-06 -1.1503063750660529e-06 -1.9499883484557146e-14 
 1.7200126664856871e-05  1.5692649920606097e-05  1.9550802164382601e-05  1.4279118013439333e-05  1.7753224516829828e-05  2.1651897960745098e-05 
 4.6368031149213493e-04  4.6491681906064559e-04  4.6745029489288860e-04  4.6576150272729163e-04  4.6879436115153682e-04  4.7091284781669530e-04 
 2.8413213327399928e-05  2.9138720896781771e-05  3.2377123738947100e-05  2.9714426065810383e-05  3.3015771492835411e-05  3.6651109029994965e-05 
-1.2259323044039997e-04 -1.1884893999244771e-04 -1.2867537284073604e-04 -1.1536798103902464e-04 -1.2474194330447120e-04 -1.3472440626213590e-04 
 9.2985420118688270e-05  8.6597228337594300e-05  8.5554585406033884e-05  8.0708405790355867e-05  7.9621930514343599e-05  7.8445553420782547e-05 
-4.9141312228231373e-04 -4.9552998570037189e-04 -4.9216194041305935e-04 -4.9801583095908917e-04 -4.9493002208216767e-04 -4.9148151320189558e-04 
 4.9394821366516761e-05  5.5248733552761730e-05  5.0789654009474402e-05  6.1488052294948853e-05  5.6540652072027177e-05  5.2014863939368396e-05 
 1.6647927640589625e-04  1.6309242636080191e-04  1.5942426508958499e-04  1.5989128197517295e-04  1.5622877352256413e-04  1.5247509851844682e-04 
-4.0039949687151752e-04 -4.0094905393849137e-04 -4.0906874314883409e-04 -4.0155378189235226e-04 -4.0984480358781774e-04 -4.1750523828983582e-04 
 1.2064154552970790e-04  1.1250152261163696e-04  1.1052682403349940e-04  1.0499043569008305e-04  1.0289983187526346e-04  1.0089635963404233e-04 
-4.1230695870487750e-06 -4.1839761361114805e-06 -2.3478606824989238e-07 -4.2058665463138912e-06 -6.0160129519535642e-07  3.2982494341605229e-06 
-1.8719250622674017e-05 -1.7071818117024287e-05 -1.4427607732828306e-05 -1.5564556361189356e-05 -1.3161813562051843e-05 -1.0484998665748950e-05 
-1.3078830259829650e-06 -1.9929390011898721e-06 -1.8365616219809757e-06 -2.6813241364266055e-06 -2.5037973804189568e-06 -2.2516969029161525e-06 
-3.9878656754297311e-04 -4.0044797256129572e-04 -3.9208950333579468e-04 -4.0218944362023745e-04 -3.9367048216901618e-04 -3.8508536019790933e-04 
-3.4987496089243010e-06 -6.8381278742978021e-07 -2.7000875097793221e-06  1.9110554198392610e-06 -2.1369902802466002e-07 -2.0335728534795248e-06 
-4.8003172957687809e-04 -4.7546048535545643e-04 -4.7309596815019997e-04 -4.6973995396926876e-04 -4.6763307214193789e-04 -4.6521568676700118e-04 
-7.6274276114370688e-05 -8.7442246393851415e-05 -8.8561029792768914e-05 -1.0037351839089046e-04 -1.0080578244265129e-04 -1.0183520287444678e-04 
-2.4245725383755545e-07  2.1171891274313209e-07 -3.3032777611248598e-07  8.0460890256180147e-07  7.2602188555149401e-08 -5.3629987316665915e-07 
 1.1835142492327683e-05  1.1462051059609895e-05  1.4002434687618009e-05  1.1049290034566127e-05  1.3582178348564691e-05  1.6477329226038902e-05 
 3.2328228286806668e-04  3.3826141594816477e-04  3.3910683904906611e-04  3.5306781479370309e-04  3.5387600503887333e-04  3.5475995818948073e-04 
 5.4624395007638921e-05  5.0148831380537732e-05  4.8793067916703977e-05  4.6057566589317296e-05  4.4763832276064139e-05  4.3366375825637163e-05 
-2.9782463038136963e-06 -2.2142037884519959e-06 -2.6455062592946009e-06 -1.4202809314778136e-06 -1.7590857673355061e-06 -2.0223689348166432e-06 
-4.2869722789023128e-04 -4.1676859881147759e-04 -4.1446437494112217e-04 -4.0412291847754947e-04 -4.0183901176826028e-04 -3.9945989910561820e-04 
 4.9385845774629906e-05  4.9330259909478390e-05  4.3409669116721927e-05  4.9603896496222004e-05  4.3656510876406598e-05  3.8030554732997283e-05 
 9.0859137566051749e-05  1.0440571533656402e-04  1.0160999390835859e-04  1.1953647928045402e-04  1.1606330695362281e-04  1.1279656517912530e-04 
-3.9743108296195630e-07 -5.2798745522699730e-07 -4.9139450776309098e-07 -6.2130378711905012e-07 -6.3667064316986928e-07 -5.4782631736849516e-07 
 2.1621032397929263e-04  2.1562570584544139e-04  2.0503446631459866e-04  2.1530779956730777e-04  2.0484835809997344e-04  1.9446948470448850e-04 
 3.2255625909900146e-07  2.8256058664224327e-07  5.1344114031644270e-07  2.3410345266374948e-07  4.7285020113259442e-07  6.7216026345626240e-07 
 1.3509574526799928e-04  1.2704979812268232e-04  1.2385919024901298e-04  1.1953647928045398e-04  1.1637065697445558e-04  1.1313239759634462e-04 
-5.9589092442441521e-05 -6.0233252709461068e-05 -5.4973102007629520e-05 -6.0677958687528711e-05 -5.5608679480522805e-05 -5.0713402465652534e-05 
 3.9994578089029483e-04  4.0286349542174204e-04  3.9410864610806918e-04  4.0585607195664102e-04  3.9702964943874055e-04  3.8804896028682385e-04 
 1.1835142492327707e-05  1.4002434687617487e-05  1.4804373023691362e-05  1.6477329226039651e-05  1.7369386163444099e-05  1.8243891806906745e-05 
-2.2516969029161669e-06 -2.5037973804188793e-06 -2.9320742473259177e-06 -2.6813241364267178e-06 -3.2096302757919254e-06 -3.5808626228283208e-06 
 1.4698467165011559e-05  1.7821644844247021e-05  1.5616864796357681e-05  2.1365123340156315e-05  1.8786904702835230e-05  1.6477329226038902e-05 
-1.5392902766177941e-04 -1.5358724550011365e-04 -1.4737332721009879e-04 -1.5326690749972317e-04 -1.4715083908495305e-04 -1.4099766568351893e-04 
-4.9502289254024702e-04 -4.8957866522809056e-04 -5.0149689375019032e-04 -4.8296411768729281e-04 -4.9698849117543471e-04 -5.0701371870451361e-04 
 1.1351327802567543e-07  3.2114269851682453e-07  6.1020045498433207e-07  5.6212156480436574e-07  9.2599020680918873e-07  1.0504831324327355e-06 
-1.3426833180115412e-04 -1.4211241874482333e-04 -1.3190873569833648e-04 -1.5008212092678904e-04 -1.3967852339819741e-04 -1.2988812490091683e-04 
 1.3541756714868062e-06  1.1751333509511748e-06  1.5938915887422252e-06  1.0422356018320161e-06  1.3023196313707662e-06  1.6622203332981934e-06 
-1.3321778887029036e-04 -1.2445426074385598e-04 -1.2569689837232262e-04 -1.1627935685859937e-04 -1.1722675338740009e-04 -1.1830704259334998e-04 
 1.0185789704548016e-04  1.1362145055263410e-04  1.1548031770804981e-04  1.2585901087596560e-04  1.2810437503327346e-04  1.3042875190425422e-04 
 1.0830535024921456e-04  1.0138360443205005e-04  1.0050152688580020e-04  9.4992062605196975e-05  9.4020711108784769e-05  9.2985420118688432e-05 
-1.1727600949171017e-05 -9.0714284698158239e-06 -7.6095842689009814e-06 -6.9102355167824357e-06 -5.4184379019793385e-06 -4.1455163827455727e-06 
 1.4639776092527876e-05  1.7972614533024078e-05  1.5127896937863413e-05  2.1764304729293323e-05  1.8522474337364515e-05  1.5579928442978261e-05 
 1.2557687122483248e-04  1.1354274705297168e-04  1.2328797234778451e-04  1.0236042924615422e-04  1.1160141027179351e-04  1.2121748702035310e-04 
 5.0451542348114069e-06  2.5027736015941215e-06  4.4296078854698030e-06  2.5740549040189958e-07  2.2033367324349578e-06  3.8756269447040776e-06 
 9.5505355735758008e-06  6.9873823747050821e-06  1.0545569508199156e-05  4.9175661484566759e-06  8.1063311951208161e-06  1.1756264843192321e-05 
-5.3349849298252223e-06 -5.4692989038164646e-06 -5.0505829857469763e-06 -5.4000005598182855e-06 -5.0300095091064625e-06 -4.4949890852963458e-06 
 2.5051329447545783e-05  2.1950340298144361e-05  2.5318705419488096e-05  1.9002429358012535e-05  2.2137642932094074e-05  2.5348230517240728e-05 
-1.2867929367296754e-05 -1.4634110039148311e-05 -1.6114457827650569e-05 -1.6504420697827933e-05 -1.8016901350009853e-05 -1.9763755600129717e-05 
-7.5825344427953403e-05 -6.9681288543305486e-05 -6.9473915090674342e-05 -6.4025257381530379e-05 -6.3755796402984713e-05 -6.3365224076122837e-05 
-3.6794491266686787e-06 -3.7408042252703888e-06 -4.2268793112260843e-06 -3.5808626228285389e-06 -4.1411180418616677e-06 -4.6291677625510782e-06 
 5.0057189504318040e-07  4.7298814902348993e-07  6.2117591648861462e-07  3.5134059834007581e-07  5.2593431681124134e-07  6.7743213510751184e-07 
-3.2552893839733020e-05 -3.7196041551992879e-05 -3.3127589120935198e-05 -4.2161894827165807e-05 -3.7642602156646590e-05 -3.3550442160549299e-05 
-1.3078830259829717e-06 -1.3315698805000835e-06 -1.9929390011899619e-06 -1.3169672011012469e-06 -2.0417219172855781e-06 -2.6813241364265505e-06 
 6.2209000620832555e-05  6.5634019699279292e-05  5.5309454662609999e-05  6.9361460734266049e-05  5.8958050654768459e-05  4.9603896496221266e-05 
-9.1695556824889835e-07 -6.4597889836349915e-07 -7.9415070614800235e-07 -2.4245725383759494e-07 -3.3032777611249063e-07 -5.3629987316665915e-07 
 2.1437584196312305e-04  2.0373155745966685e-04  2.0551425399922864e-04  1.9327795459430069e-04  1.9508106452252602e-04  1.9703327282200175e-04 