<VTKFile type="UnstructuredGrid" version="1.0" byte_order="LittleEndian" header_type="UInt64">
<UnstructuredGrid>
<Piece NumberOfPoints="7326" NumberOfCells="4884">
<PointData>
<DataArray type="Float64" Name="uy" NumberOfComponents="1" format="ascii">
-2.5168555570965204e-04 -2.7334739238558448e-04 -2.6006081265958736e-04 -2.9557642513021725e-04 -2.8220473761462512e-04 -2.6857394546071382e-04 
-2.2475129326759947e-04 -2.1889845869264098e-04 -2.2727562115381684e-04 -2.1300524382541968e-04 -2.2136550842628437e-04 -2.3006337498267059e-04 
-3.4162151286441473e-05 -3.4732464667040033e-05 -3.0133778877733178e-05 -3.5420919375397728e-05 -3.0615512679859731e-05 -2.6371676762697686e-05 
 4.9110327597268113e-04  4.8508534927473197e-04  4.8772680591775052e-04  4.7772595048116466e-04  4.8151582959031508e-04  4.8396311457546746e-04 
-2.1396021818871942e-05 -2.4265663276547444e-05 -2.1103873300484226e-05 -2.7480438548822106e-05 -2.3966214369249776e-05 -2.0640755986603405e-05 
 3.7402978048622761e-05  4.1132946135980053e-05  3.4973293553815335e-05  4.5617005868361536e-05  3.8941006143881721e-05  3.2776827347941824e-05 
-4.6126138626251928e-04 -4.5980665733083153e-04 -4.5762942097853559e-04 -4.5793988337211171e-04 -4.5601135322845347e-04 -4.5380824039327206e-04 
 2.1282828705556682e-04  2.1537566169578412e-04  2.0697780274089102e-04  2.1815539643629288e-04  2.0944796535953041e-04  2.0108505518339937e-04 
 6.9086491476482161e-05  6.3391658482809271e-05  6.3653773168806697e-05  5.7944424600996100e-05  5.8280698633392516e-05  5.8613112420372215e-05 
 9.9069730102300906e-05  1.0908019582028339e-04  9.4820204913952509e-05  1.1953647928045201e-04  1.0440571533656734e-04  9.0859137566051492e-05 
 2.1815457836998152e-04  2.2026930357443202e-04  2.0428058757575681e-04  2.2241793903345883e-04  2.0616788623134438e-04  1.9061208132278620e-04 
-2.1396021818871887e-05 -2.1103873300483555e-05 -1.8438041884057944e-05 -2.0640755986603703e-05 -1.7996663165827820e-05 -1.5659155885725837e-05 
 3.5649078563678720e-06  6.3465367791085708e-06  5.7545599935008184e-06  9.3086637861379529e-06  8.4335320731083004e-06  7.6422356217486600e-06 
 4.2400703975199661e-05  3.9327144888870559e-05  3.8238954114813478e-05  3.6254461163856474e-05  3.5355779037299320e-05  3.4430365901655987e-05 
-8.6882476066252384e-06 -1.0995617679683737e-05 -9.0001423696010718e-06 -1.3740719173231662e-05 -1.1444434806964050e-05 -9.3994497983036899e-06 
 1.6784398302548061e-04  1.7602261218601660e-04  1.7351273625608530e-04  1.8459090499237921e-04  1.8178737243990974e-04  1.7913714356001455e-04 
 1.5196733351949169e-06  1.6702332421375575e-06  3.6087348447284292e-07  1.8269741248567916e-06  5.5528064214059241e-07 -5.4060955084557137e-07 
-1.5607147215975330e-04 -1.5019936334665688e-04 -1.5867170957702372e-04 -1.4433647455839159e-04 -1.5261648885385386e-04 -1.6138349410896419e-04 
 3.3539299271402092e-05  3.1665832822297707e-05  3.7198296822003972e-05  2.9857914833244693e-05  3.5270214571633227e-05  4.1295709918429256e-05 
-7.8726131132771909e-05 -7.3224734792120340e-05 -7.9194175522171275e-05 -6.7827868222829676e-05 -7.3490959381280286e-05 -7.9577004423625393e-05 
 8.6690810545995704e-06  6.9040913129486713e-06  6.8459283656366014e-06  5.3347103054287972e-06  5.2980582009014948e-06  5.2163248479034389e-06 
-1.5607147215975333e-04 -1.6402017228549627e-04 -1.6137324272768306e-04 -1.7236009331308882e-04 -1.6942618339314738e-04 -1.6663637732469892e-04 
 1.4748071413733524e-05  1.3870208621240155e-05  1.2108379271979938e-05  1.2851184994518798e-05  1.1246937711743637e-05  9.7769066791093051e-06 
-7.8588445400411987e-07 -1.4903835840685388e-06 -7.7310728119447284e-07 -2.3997851330756227e-06 -1.6055204691391209e-06 -7.2085927588319355e-07 
-1.2069307530588180e-04 -1.2785729909761947e-04 -1.2299187279863656e-04 -1.3542759271050617e-04 -1.3042453902248571e-04 -1.2535729313183737e-04 
-4.8526793773714629e-04 -4.8899629701934250e-04 -4.8228231669698857e-04 -4.9141312228233010e-04 -4.8587021322879195e-04 -4.7897951165212755e-04 
 2.6809942494595803e-04  2.6823749899992558e-04  2.7824560476968582e-04  2.6868972875380553e-04  2.7862466315371049e-04  2.8857498187933320e-04 
-3.2260805432814085e-05 -3.5043519158833080e-05 -3.0151932978770883e-05 -3.8260062405891018e-05 -3.3007679392252205e-05 -2.8145159951410900e-05 
-1.4717472433102018e-04 -1.5520916725318332e-04 -1.5200641807997973e-04 -1.6362080492998276e-04 -1.6008564654426140e-04 -1.5685592364392644e-04 
 1.3166496382592777e-05  1.3320081998923957e-05  1.0914401940852488e-05  1.3349850058753528e-05  1.1001904138242246e-05  8.8520236560534659e-06 
-1.1774446431403439e-04 -1.2127893629275947e-04 -1.2587329152823250e-04 -1.2497912717271859e-04 -1.2977470117812417e-04 -1.3451084227301060e-04 
 4.8563102052662954e-05  5.3836358280503373e-05  4.9014741061974699e-05  5.9619097477149941e-05  5.4397128319890881e-05  4.9395028226925243e-05 
-1.8739132947257620e-04 -1.8815617702148450e-04 -1.9696876580328223e-04 -1.8927568719588050e-04 -1.9811053276057113e-04 -2.0703782460745304e-04 
 3.0230444700784281e-05  2.7284590255947989e-05  3.3203312726592086e-05  2.4976771160743995e-05  3.0418693675374173e-05  3.6388784620439615e-05 
-3.0590420882159958e-05 -3.4426795164497078e-05 -3.6872232021153574e-05 -3.9014767721899572e-05 -4.1233998581651358e-05 -4.3697466602830496e-05 
 1.2769208476254436e-04  1.2093571038041518e-04  1.2890579100977972e-04  1.1430611168058661e-04  1.2193404442300189e-04  1.3009755812739011e-04 
-1.4626531495413227e-04 -1.5174006313080734e-04 -1.5410624207930166e-04 -1.5713456251515332e-04 -1.5968715009593548e-04 -1.6235388856909369e-04 
-7.4122686374213006e-07 -5.4394196735848994e-07 -5.2920059729255829e-07 -2.0279285335053998e-07 -2.1919504315359672e-07 -2.0581189940901233e-07 
 7.5082636753360783e-05  8.0269090374227104e-05  7.7853588114145086e-05  8.5771857612477442e-05  8.3098796516416974e-05  8.0489740929065139e-05 
-1.6873252757370930e-04 -1.7418149570814286e-04 -1.7648292589742513e-04 -1.7959014945086684e-04 -1.8202283720052342e-04 -1.8459090501655602e-04 
 3.2933955878504792e-05  3.6296335209938785e-05  3.2193065126386341e-05  3.9949466126933099e-05  3.5512540589838845e-05  3.1341725840136595e-05 
 3.9640835507575662e-05  3.6224497325130361e-05  4.1401596660431673e-05  3.2901914112860048e-05  3.7971435281285035e-05  4.3585071281715750e-05 
 4.6954136870537436e-04  4.6633616823185388e-04  4.6669768002286611e-04  4.6280710838150318e-04  4.6329377156457529e-04  4.6348390060441932e-04 
-4.8623684649542884e-04 -4.7862231646715229e-04 -4.8326728077419584e-04 -4.6973995396927000e-04 -4.7546048535547134e-04 -4.8003172957687831e-04 
-3.8540983078625199e-04 -3.9558794993433403e-04 -3.8450050461554317e-04 -4.0534775126287008e-04 -3.9464386746800121e-04 -3.8365725056436806e-04 
 2.1109970670851258e-04  2.0752130194313635e-04  2.1493651957202174e-04  2.0389251998125888e-04  2.1139486383128849e-04  2.1912770070961466e-04 
-4.2985168396574480e-04 -4.3957282734966398e-04 -4.2856973168425220e-04 -4.4851501184001256e-04 -4.3817875302302556e-04 -4.2718364378154346e-04 
-1.9626599423300560e-04 -1.8272892505642919e-04 -1.9547448842664123e-04 -1.6954867364962298e-04 -1.8180136004169645e-04 -1.9467900799865356e-04 
-3.0590420882159904e-05 -2.8194418729546711e-05 -3.4426795164498271e-05 -2.6012032144595587e-05 -3.2202509947536198e-05 -3.9014767721897715e-05 
-2.0051318435687841e-04 -1.9138524624304958e-04 -1.9491728667994505e-04 -1.8267941318003626e-04 -1.8582824101827508e-04 -1.8926737914222317e-04 
 1.6698313040131778e-04  1.7253756667619588e-04  1.7506435873505905e-04  1.7805203890129649e-04  1.8070946407200373e-04  1.8352527280814297e-04 
-1.7756761111303100e-04 -1.7212291819956586e-04 -1.8045916436648798e-04 -1.6663637732470654e-04 -1.7488496838205921e-04 -1.8352527282288744e-04 
-1.0684129769531297e-05 -7.7221808563373999e-06 -8.1148797332128984e-06 -5.0562869407033167e-06 -5.4639191348420817e-06 -5.7371568163910971e-06 
 1.5757133578867604e-04  1.4508010366910790e-04  1.5645184026963073e-04  1.3307861968634230e-04  1.4385603730315019e-04  1.5539567895537503e-04 
-4.3545519522106266e-06 -3.8417865952302117e-06 -3.6503560841019677e-06 -3.0545308073527500e-06 -2.9555309650624906e-06 -2.7555858633842739e-06 
 5.9883199379827111e-05  6.4178520790405180e-05  6.3360982246527309e-05  6.8715342578026976e-05  6.7743964787278773e-05  6.6720445400749945e-05 
-4.6551161406367832e-04 -4.6344795721485195e-04 -4.6185377756675417e-04 -4.6095145342844819e-04 -4.5958820920865298e-04 -4.5793988337209561e-04 
 4.6728801401916696e-04  4.6423100904180946e-04  4.6518711200461407e-04  4.6095145337748288e-04  4.6202551645654818e-04  4.6280710838148638e-04 
-2.0629032570071001e-04 -2.0650715393599685e-04 -2.1573195079303451e-04 -2.0703782460746223e-04 -2.1625423447964523e-04 -2.2555867715845816e-04 
-4.6608926523022097e-04 -4.6784036761310594e-04 -4.6445265375805232e-04 -4.6922438815234356e-04 -4.6596969090857476e-04 -4.6251413830305078e-04 
-1.6873252757370895e-04 -1.7100924887099490e-04 -1.6293871815664107e-04 -1.7339514895170935e-04 -1.6504832084315507e-04 -1.5713456251514719e-04 
-1.9042368702940069e-04 -1.9309503499447369e-04 -1.8503575342863755e-04 -1.9594457327825555e-04 -1.8759691156190845e-04 -1.7959014945085995e-04 
 2.6372526921736696e-04  2.6507116158055387e-04  2.5729694483467584e-04  2.6671984167164336e-04  2.5864122236144582e-04  2.5082058104304903e-04 
 1.9130162745810360e-05  1.5789137343332837e-05  1.5983188996455177e-05  1.2782146330990396e-05  1.2941763977560048e-05  1.3183465229827856e-05 
-2.8889807451033795e-04 -2.8132200277679878e-04 -2.9014381246410698e-04 -2.7367931274386746e-04 -2.8255067293198895e-04 -2.9171507134076387e-04 
-3.1373597742725839e-06 -3.3694338336032019e-06 -5.8353590287989673e-06 -3.6132927808103690e-06 -6.3400109060868309e-06 -8.8197226855641846e-06 
-2.8873650344162074e-04 -2.9016521242168045e-04 -2.8212561410362596e-04 -2.9191962956965332e-04 -2.8357953059138420e-04 -2.7545456702630325e-04 
-2.4982078305380007e-04 -2.5813189570554569e-04 -2.5550890083303804e-04 -2.6671984168468403e-04 -2.6376387548387710e-04 -2.6116099529775678e-04 
 9.0220390178351573e-06  6.9461780972233306e-06  7.5924685973202344e-06  5.1451312543073368e-06  5.5723852706890727e-06  5.9980397958484225e-06 
-3.6330596689771453e-04 -3.6446705261867888e-04 -3.7384288152504387e-04 -3.6575353805918653e-04 -3.7493847355975310e-04 -3.8405910260657348e-04 
 8.6269959171839015e-07  6.1798298711789572e-07  1.8568280548379024e-08  4.4072654263073637e-07 -3.3662868487226797e-08 -7.2085927588319355e-07 
-1.0210162608703945e-06 -2.9994345105690601e-06 -1.4777688100207199e-06 -5.1610342451003334e-06 -3.7281157536084147e-06 -2.0335728534795248e-06 
 1.7552656832950082e-04  1.6986897613096105e-04  1.7955385340474056e-04  1.6454121736146916e-04  1.7386700047922654e-04  1.8354732383738518e-04 
-6.1547792397066052e-05 -5.7140726081705182e-05 -6.1048966639018872e-05 -5.2807150211487269e-05 -5.6502155136993701e-05 -6.0433547376525253e-05 
-8.0413489932172493e-06 -9.9211371979498787e-06 -9.6609840961045859e-06 -1.1990299321638620e-05 -1.1830178883629435e-05 -1.1541039816037027e-05 
-2.3812806088410312e-04 -2.4386985642584511e-04 -2.4643211376402640e-04 -2.4956312738147474e-04 -2.5211068526021267e-04 -2.5501958469815745e-04 
-1.6528340329694363e-06 -8.9116238773649342e-07 -7.3945299760001224e-07 -7.4484529708746514e-08  4.1498693410442703e-08  1.4597483934549058e-07 
-9.5168358379105473e-06 -1.0421120487608977e-05 -8.0981966462776266e-06 -1.1536641094106273e-05 -9.0173381339588517e-06 -6.8256086628399770e-06 
-3.6587782802317651e-05 -3.6442728274051160e-05 -3.1833746678639313e-05 -3.6486317620408974e-05 -3.1606476929356571e-05 -2.7399094562467052e-05 
-7.9563698900860302e-06 -9.4722934914585075e-06 -5.5043487076315721e-06 -1.1196354902317242e-05 -6.8450391112867535e-06 -2.7796958574714280e-06 
-5.8126062824905623e-05 -6.2506740534470280e-05 -5.8165955516873093e-05 -6.7176203959474739e-05 -6.2642682335851830e-05 -5.8092005193129908e-05 
-3.2640799979126053e-05 -2.8787043078214401e-05 -3.0395759650722703e-05 -2.4989046917617361e-05 -2.6773763477611606e-05 -2.8308871028804951e-05 
-2.2475129326759955e-04 -2.3327979597096115e-04 -2.3018387268038709e-04 -2.4213801660583957e-04 -2.3868266261307678e-04 -2.3557783121813658e-04 
 1.8861353784181480e-05  2.1805833743032281e-05  2.1128465531122903e-05  2.4994855748091056e-05  2.4385628257840799e-05  2.3603615508052025e-05 
-2.6643002907130126e-04 -2.5624680391980498e-04 -2.6611103954377383e-04 -2.4611921218781809e-04 -2.5594181360756363e-04 -2.6600958359385889e-04 
-1.9369536012315529e-06 -2.2636554057334140e-06 -2.7071696456033729e-06 -2.6432573365428249e-06 -3.0995022711245465e-06 -3.6262759878273718e-06 
-3.6506996145094358e-04 -3.7447475809340036e-04 -3.6391031250647627e-04 -3.8365725056437993e-04 -3.7335213818707384e-04 -3.6288290294686791e-04 
 1.6318632226820594e-04  1.6690293125167416e-04  1.8023982983995563e-04  1.7085829983378377e-04  1.8459463103866707e-04  1.9841950236284026e-04 
 7.9864969933624269e-07  8.5312838475632607e-07  8.6412366629997142e-07  8.4902416852222540e-07  8.5925902300207712e-07  8.3986366043482129e-07 
 8.2871211001799796e-07  7.3665981776746437e-07  8.2309066875414555e-07  5.4367686338031770e-07  6.9551737281514276e-07  7.9864969933624396e-07 
-1.6173394886857584e-04 -1.7243304765824486e-04 -1.6472479018756161e-04 -1.8361181172824544e-04 -1.7578079484210213e-04 -1.6805497358473535e-04 
-1.2404896465854684e-04 -1.3798470823012593e-04 -1.3650534999103391e-04 -1.5324533104712292e-04 -1.5125635150048917e-04 -1.4943361917432534e-04 
-2.4630512317100143e-06 -2.7937332571604266e-06 -3.2927364753135908e-06 -2.9637885243213272e-06 -3.5092766518034846e-06 -3.9276880385853240e-06 
-7.8726131132771977e-05 -8.3875079425605611e-05 -8.2243642299872446e-05 -8.9305412799321296e-05 -8.7489522445255164e-05 -8.5669895084141079e-05 
 2.1282828705556720e-04  2.1895431444894807e-04  2.2127671536354839e-04  2.2503774563092642e-04  2.2742189308496745e-04  2.3006337496692480e-04 
 3.0230444700784159e-05  2.4685783577033040e-05  2.7284590255948636e-05  1.9688942768832225e-05  2.2233106444991766e-05  2.4976771160742003e-05 
 2.3701857921752472e-04  2.3349790923323671e-04  2.4821322335835330e-04  2.3019093178075202e-04  2.4465304431910205e-04  2.5952194894366369e-04 
 5.0194347981431702e-05  4.4801587177473534e-05  5.0060323703619362e-05  3.9815141987811880e-05  4.4734559443964179e-05  4.9954066262141847e-05 
 1.3924216578818202e-04  1.3798570325410279e-04  1.4685169662781246e-04  1.3683774338573448e-04  1.4574610036066835e-04  1.5489829959856172e-04 
-1.2688826178433192e-04 -1.4016058908881491e-04 -1.3112225947222017e-04 -1.5440612679747578e-04 -1.4492299601589101e-04 -1.3558218070733330e-04 
 4.9967013295369235e-04  4.9622137720293352e-04  4.9652136074510933e-04  4.9110327597269891e-04  4.9273194505270368e-04  4.9306506352127060e-04 
 1.2769208476254445e-04  1.3405332472360838e-04  1.3164907014661916e-04  1.4071238507855742e-04  1.3808365440529571e-04  1.3553256056979707e-04 
 3.5061842091105289e-04  3.5185517141090374e-04  3.3525568992432694e-04  3.5306781479369978e-04  3.3641505073018168e-04  3.1966685443520995e-04 
-2.4982078305380001e-04 -2.4271941987577685e-04 -2.5194379325492981e-04 -2.3557783121814683e-04 -2.4478438537860642e-04 -2.5436366680261992e-04 
-9.8690046755275770e-06 -9.5383014321767613e-06 -1.2833406726459387e-05 -9.2773627851710069e-06 -1.2503151552323278e-05 -1.6237642018702088e-05 
-1.7711133183561566e-04 -1.8296321026829921e-04 -1.6568095055317241e-04 -1.8901841880147920e-04 -1.7115666421151915e-04 -1.5440612679747188e-04 
-4.1279115538778756e-05 -3.7729756940509130e-05 -3.6648474980921171e-05 -3.4325305103073598e-05 -3.3374122356771236e-05 -3.2457003786798834e-05 
-3.6587782802317752e-05 -4.1897139330317753e-05 -3.6442728274052339e-05 -4.8028597401774698e-05 -4.2070264309303924e-05 -3.6486317620408459e-05 
-9.5108924407876097e-06 -1.1952949925945201e-05 -1.0984385629779003e-05 -1.4548040928198720e-05 -1.3715890544447741e-05 -1.2659530567681673e-05 
-7.4122686374212953e-07 -7.5626276309248466e-07 -5.4394196735849534e-07 -7.3672364795497702e-07 -5.3266944483052344e-07 -2.0279285335053440e-07 
 4.1026892419986771e-04  4.2452076479089154e-04  4.1100913505941525e-04  4.3787605494543191e-04  4.2512070782219422e-04  4.1162243371565605e-04 
 2.6633765709376613e-04  2.8931996896625002e-04  2.7303195407554304e-04  3.1279805414760527e-04  2.9635235691967491e-04  2.7977152509892365e-04 
-1.3558218070733362e-04 -1.4492299601588649e-04 -1.4904295706931161e-04 -1.5440612679747828e-04 -1.5879595701219902e-04 -1.6337411021014048e-04 
 7.8036093877306397e-05  6.8829839213252413e-05  6.8811786008078207e-05  6.0110853442104488e-05  6.0274996548176173e-05  6.0712378228309279e-05 
-3.3614083506149427e-06 -2.8719972329021328e-06 -4.1294457728615056e-06 -2.2250939577314368e-06 -3.6585242909417740e-06 -4.7286309747418736e-06 
-1.6954867364961479e-04 -1.6860290923738003e-04 -1.8180136004169605e-04 -1.6769891421934246e-04 -1.8099718684093895e-04 -1.9467900799865356e-04 
-2.7852750114231685e-05 -2.3972692413924035e-05 -2.6370410548297866e-05 -2.0364503951881338e-05 -2.2620022066810476e-05 -2.4852697367740403e-05 
-1.1562398577480983e-04 -1.0926724760360476e-04 -1.0770970542457079e-04 -1.0303703426536527e-04 -1.0156903446741289e-04 -1.0026025693115537e-04 
-9.5108924407875250e-06 -8.3771479932408137e-06 -7.2495258507128589e-06 -7.0113487971272345e-06 -6.0231841012450018e-06 -5.1610342451004537e-06 
-7.5872019946789522e-06 -8.1835022334235398e-06 -1.0396246162775244e-05 -8.8197226855649079e-06 -1.1238395620434634e-05 -1.3426027520663696e-05 
-2.8889807451033806e-04 -2.9650553498528152e-04 -2.9572303468477688e-04 -3.0428525202018879e-04 -3.0323102186835711e-04 -3.0248267828116834e-04 
-7.8588445400414327e-07 -1.0912757114049107e-06 -1.4903835840686272e-06 -1.2937521507248775e-06 -1.7537656546708363e-06 -2.3997851330756935e-06 
-2.5426047328149145e-06 -1.6348947169748868e-06 -2.3711305421287851e-06 -9.4872241931446810e-07 -1.5080762871910680e-06 -2.1250006734942634e-06 
-1.7756761111303106e-04 -1.8602829642971454e-04 -1.8343907740644557e-04 -1.9488067892790931e-04 -1.9197741912454065e-04 -1.8926737914222317e-04 
-3.0214695010260650e-04 -3.0308350636250775e-04 -2.9547562684320778e-04 -3.0432685334582965e-04 -2.9644100607058950e-04 -2.8873650344162096e-04 
-1.9042368702940101e-04 -1.9613115067869765e-04 -1.9876105155314911e-04 -2.0178833456259142e-04 -2.0451885463893470e-04 -2.0745733501620166e-04 
 1.5196733351949719e-06  2.4642612790406941e-06  2.8675786898989281e-06  3.5922637322625095e-06  3.9950483079986373e-06  4.4170900556449017e-06 
-1.3884034558283239e-04 -1.3136599242429209e-04 -1.4491074747020375e-04 -1.2434728981718958e-04 -1.3732053277562732e-04 -1.5108513364428454e-04 
-3.2307354785283124e-04 -3.3236668735697262e-04 -3.2203641520682546e-04 -3.4165156874433684e-04 -3.3148283224048369e-04 -3.2124972584571569e-04 
-2.9724324219843571e-05 -2.8685725464358400e-05 -2.6049363670653339e-05 -2.7574920036768264e-05 -2.5034609941724638e-05 -2.2707890761043663e-05 
-2.0051318435687868e-04 -2.0912266886244303e-04 -2.0676863377611649e-04 -2.1815539646173360e-04 -2.1546527411046390e-04 -2.1300524382541043e-04 
-9.5577694015908847e-07 -1.4072089761320128e-06 -1.4027990970398531e-06 -1.7955188680019359e-06 -1.9078138071830823e-06 -1.9504243237570495e-06 
 5.8861784053141684e-05  5.1483494489957995e-05  5.6823637906906491e-05  4.4730968061208574e-05  4.9518534413178975e-05  5.4826527225024780e-05 
-1.4421751603278779e-04 -1.3214210466516341e-04 -1.4409222312636980e-04 -1.2054889510516010e-04 -1.3190429902374946e-04 -1.4406548318733438e-04 
-9.8690046755274923e-06 -7.0936437127889497e-06 -9.5383014321769917e-06 -4.7167181019581446e-06 -6.8391845087610648e-06 -9.2773627851699990e-06 
 2.4727609929081531e-04  2.4719431879234620e-04  2.5754871178349420e-04  2.4739769821893043e-04  2.5771820138146450e-04  2.6809942494595781e-04 
-2.5651977745454843e-05 -2.2623431372397733e-05 -2.5660299950134204e-05 -1.9798584899112951e-05 -2.2527859404369127e-05 -2.5540765957092538e-05 
 1.8504283118284248e-04  1.8431029690593289e-04  1.9836702180235023e-04  1.8361633727763941e-04  1.9780609619182165e-04  2.1238486424903429e-04 
-6.1806267563704353e-06 -2.7018845865742982e-06 -6.2803073249672461e-06  1.0873037279200394e-06 -2.5093890790233844e-06 -6.3360534231126515e-06 
 1.4406974765895442e-04  1.4176483718574600e-04  1.3559337334666802e-04  1.3964094986925675e-04  1.3354390552400468e-04  1.2746387836525946e-04 
-2.0051318435687860e-04 -1.9491728667993933e-04 -2.0334115237657409e-04 -1.8926737914223160e-04 -1.9765642971938957e-04 -2.0642536861933155e-04 
-3.4341608388544550e-04 -3.3352184241103587e-04 -3.4178670900315790e-04 -3.2359912839463411e-04 -3.3206478747237780e-04 -3.4048545098304221e-04 
 2.7636464464946394e-04  2.8282188861155451e-04  2.8393603761557693e-04  2.8922630913906554e-04  2.9031900010739314e-04  2.9171507131049202e-04 
 2.7128324839530123e-06  3.1274242086981369e-06  3.7300319487264130e-06  3.5509166947015851e-06  4.2955526657011270e-06  4.9630031199404934e-06 
-3.2915343560453107e-04 -3.2895378136351961e-04 -3.2232486286222386e-04 -3.2907270286230598e-04 -3.2220764807865555e-04 -3.1541806556560794e-04 
-7.9862952600628454e-05 -8.9347078379966427e-05 -8.9643918915881168e-05 -9.9797724808305951e-05 -9.9850413218540915e-05 -9.9927339638854131e-05 
 2.2821306787975317e-05  2.6078535512681172e-05  2.7195314571171865e-05  2.9516996061255178e-05  3.0634512755636377e-05  3.2136082129836683e-05 
-3.5420919375397166e-05 -3.1301791770463725e-05 -3.0615512679859805e-05 -2.7459903700781026e-05 -2.6860271605151707e-05 -2.6371676762697686e-05 
 1.3185274295814684e-04  1.3527685792547996e-04  1.2631429009155078e-04  1.3857471388430831e-04  1.2968961562291985e-04  1.2107888844460477e-04 
 8.2871211001799807e-07  8.2309066875411940e-07  8.5304448420459163e-07  7.9864969933627127e-07  8.6412366629997205e-07  8.3986366043482129e-07 
 3.0110019567410555e-06  3.7372393527551333e-06  4.1693727039342460e-06  4.4608189041093991e-06  5.2128570841043522e-06  5.7354385956445325e-06 
-1.4946594393567928e-05 -1.2606817633332558e-05 -1.4280304676423785e-05 -1.0528466423986327e-05 -1.1968421002248100e-05 -1.3509401630660555e-05 
 1.3166496382592818e-05  1.0815102424889278e-05  1.3001514638970809e-05  8.6690810546003243e-06  1.0629688806836997e-05  1.2832694388729039e-05 
 3.3539299271402133e-05  3.7198296822002665e-05  3.8866475216180524e-05  4.1295709918431065e-05  4.2990189217475381e-05  4.4730968061205999e-05 
-8.9161783339836745e-05 -8.0949811616590843e-05 -9.2192770321293069e-05 -7.3405236474984755e-05 -8.3911682708443316e-05 -9.5198515476927587e-05 
 3.3539299271401957e-05  2.8168359567681614e-05  3.1665832822298513e-05  2.3399021073432896e-05  2.6429625218084984e-05  2.9857914833242528e-05 
 2.1109970670851267e-04  2.2078444304952843e-04  2.1913172615569925e-04  2.3095104625256123e-04  2.2897490290060791e-04  2.2717714086104200e-04 
 3.2933955878504724e-05  3.2193065126385338e-05  2.8788994199730445e-05  3.1341725840137137e-05  2.8017938003372793e-05  2.4994855748090294e-05 
 7.2898104277910152e-05  6.4019067147913516e-05  6.5676127929497900e-05  5.6089097599036896e-05  5.7406289400998627e-05  5.8861784053141731e-05 
-2.9557642513020879e-04 -3.0425437083561184e-04 -2.8220473761462529e-04 -3.1294922770339843e-04 -2.9057092699856063e-04 -2.6857394546071382e-04 
 3.9994578089029510e-04  4.0764900098786138e-04  4.0286349542175472e-04  4.1505387518509223e-04  4.1061123208054761e-04  4.0585607195662806e-04 
 4.2543090643330718e-04  4.1091563613778837e-04  4.2187967684749640e-04  3.9566682463957454e-04  4.0718098596101828e-04  4.1819257553464946e-04 
 1.8727509338436484e-05  1.8929179087873049e-05  1.5952904959318900e-05  1.9002429358011413e-05  1.6070925227790071e-05  1.3349850058753458e-05 
 3.0377369850564619e-04  3.0386283135247787e-04  2.9653508841939036e-04  3.0428525199518449e-04  2.9667800060505456e-04  2.8922630913905486e-04 
-2.7753564018277175e-06 -2.9482876453566832e-06 -3.4320781298364276e-06 -2.9591026306249779e-06 -3.6590111689254219e-06 -4.0110355864754382e-06 
-3.8542993184592021e-05 -4.2956950568478104e-05 -3.9868965236842994e-05 -4.7771691987179384e-05 -4.4477822350942843e-05 -4.1279115538778844e-05 
-1.3953575787957601e-08 -5.5730138992198275e-08  5.7795701352834086e-07 -8.7992827990254817e-08  4.8327556540132863e-07  1.0925035507660480e-06 
 4.4450779248563754e-07  1.0121518297746145e-06  1.7813750557277112e-07  1.4986242888598455e-06  6.9368592819507043e-07 -4.0034270507539157e-08 
-2.7555858633842463e-06 -2.9555309650623839e-06 -1.9186747706080181e-06 -3.0545308073525650e-06 -2.0344758935679740e-06 -7.8659367299974879e-07 
 2.2907660573546541e-06  1.2559235554566729e-06  2.2277917796242214e-06  1.6661281729010377e-19  1.2197253252853243e-06  2.0907917881925596e-06 
-4.0809136101715684e-04 -3.9180409488153648e-04 -4.0618023986471822e-04 -3.7484398284259320e-04 -3.8972793700436448e-04 -4.0412291847753522e-04 
 5.5870761581911012e-06  5.6439710235160617e-06  5.8379656840818703e-06  5.6562278986865112e-06  5.9061138592431108e-06  5.9433582972472933e-06 
-2.6012032144593527e-05 -2.4176054566043616e-05 -3.0138917886092849e-05 -2.2509175679691983e-05 -2.8428999169819592e-05 -3.5010069982387261e-05 
 2.6338641947894290e-04  2.5711747077935860e-04  2.6517143516261907e-04  2.5079570517888957e-04  2.5889151780065058e-04  2.6723544784045840e-04 
-4.9714820432139718e-05 -4.8811639281471724e-05 -5.6019128797866409e-05 -4.7957329648203085e-05 -5.5160633548703476e-05 -6.2937205912955710e-05 
 1.5196733351949626e-06  5.9565554483418500e-07  2.4642612790408068e-06 -2.5703327657678687e-07  1.4620447683202281e-06  3.5922637322623024e-06 
-2.7367931274385602e-04 -2.6743991458380177e-04 -2.7621828516975955e-04 -2.6116099529776779e-04 -2.7003252469088614e-04 -2.7918078621965792e-04 
-1.4845854443879767e-07 -1.6604208024194048e-07 -2.6937334168867191e-07 -1.2295183694002302e-07 -2.7791731265713513e-07 -3.9743108296195529e-07 
 3.5061842091105327e-04  3.6651585178656357e-04  3.5185517141091474e-04  3.8211239233442199e-04  3.6776770750496414e-04  3.5306781479369029e-04 
 3.1550643460044711e-04  3.0886419335552289e-04  3.1597171157384159e-04  3.0214695008333627e-04  3.0937372133645963e-04  3.1672659837514672e-04 
 6.9086491476482147e-05  6.9548349586521656e-05  6.3391658482811033e-05  7.0031897913945272e-05  6.3734104004656392e-05  5.7944424600993965e-05 
 8.2871211001799351e-07  7.9713348224202968e-07  7.3665981776748216e-07  7.7677601109810371e-07  6.7377790617760292e-07  5.4367686338028001e-07 
 2.5294230066730936e-06  1.9065412051351510e-06  2.5530372744607477e-06  1.3795388914214610e-06  1.8113891062224177e-06  2.3920259222617738e-06 
 9.9289845330893030e-05  1.0052638429380177e-04  8.8821995365769376e-05  1.0185789704548142e-04  8.9760237360845342e-05  7.8829570103122182e-05 
 2.7977152509892371e-04  2.9820409322547486e-04  2.8225685748098112e-04  3.1689266485736148e-04  3.0085606490476256e-04  2.8471409998573181e-04 
-9.3656571515599524e-06 -6.8426150544586600e-06 -7.1222687138086656e-06 -4.5481258165461137e-06 -4.9230637519647966e-06 -5.0562869407030795e-06 
-2.7753564018277035e-06 -2.1152742829498276e-06 -2.9482876453567819e-06 -9.9777682796080653e-07 -2.0058699838492244e-06 -2.9591026306248026e-06 
 1.9291248428189575e-05  1.6084495136291899e-05  1.5128341765021443e-05  1.3054192671596819e-05  1.2127233769986346e-05  1.1314186316078023e-05 
 8.2073440940231442e-05  8.1406917258691785e-05  8.8267158202985950e-05  8.0708405790357385e-05  8.7696913544174507e-05  9.4992062605193735e-05 
-2.2309174652734412e-04 -2.2260184060783294e-04 -2.3702659225465690e-04 -2.2217332064111155e-04 -2.3669326664226245e-04 -2.5143284983871687e-04 
-1.4421751603278807e-04 -1.4409222312636546e-04 -1.5561382304484951e-04 -1.4406548318734181e-04 -1.5569100801735228e-04 -1.6769891421933395e-04 
-3.4218856896242383e-04 -3.4164294239428372e-04 -3.3572497430571215e-04 -3.4131250073781013e-04 -3.3519904924765744e-04 -3.2915343560453123e-04 
 8.2073440940231293e-05  8.9112595325336943e-05  8.2621498641634758e-05  9.6463066305117756e-05  8.9552273278710614e-05  8.3175842575271505e-05 
-1.8436660984592421e-04 -1.9285907193271828e-04 -1.8726614425858279e-04 -2.0178833456258993e-04 -1.9613115067870378e-04 -1.9042368702940082e-04 
-3.4162151286441575e-05 -3.9061176007933011e-05 -3.4732464667041192e-05 -4.4562022798206449e-05 -3.9856774985256137e-05 -3.5420919375397254e-05 
-3.2774544503185447e-04 -3.2179208815332670e-04 -3.2839260941291515e-04 -3.1578585672471262e-04 -3.2253186047234873e-04 -3.2935200871847320e-04 
-4.9810883412153609e-04 -4.9291170679612549e-04 -4.9487018688462530e-04 -4.8623684649544668e-04 -4.8952219096942804e-04 -4.9130926479362604e-04 
 2.3965650177118229e-04  2.4194010878815863e-04  2.3035981629532793e-04  2.4465579813973945e-04  2.3275630546562307e-04  2.2118434817933953e-04 
 2.7558481870966809e-04  2.6950816044362123e-04  2.7737735823691857e-04  2.6338641947895385e-04  2.7135316216349861e-04  2.7954465897433837e-04 
-3.4057141342895333e-06 -2.7607714423329050e-06 -3.0224200125845182e-06 -2.0223689348167533e-06 -2.2789777206106457e-06 -2.4630512317100012e-06 
-2.1396021818872030e-05 -2.4394901783291541e-05 -2.4265663276548342e-05 -2.7574920036768688e-05 -2.7590634038150218e-05 -2.7480438548821730e-05 
 2.3733608625337157e-04  2.4602876406163462e-04  2.4409269793358290e-04  2.5501958469095179e-04  2.5277711345887417e-04  2.5079570517887894e-04 
-6.1547792397066120e-05 -6.5648312269533940e-05 -6.4779846025175546e-05 -6.9957146328951270e-05 -6.8933587214030275e-05 -6.7827868222826112e-05 
-1.3426027520663721e-05 -1.1238395620434333e-05 -1.4462055193116382e-05 -8.8197226855651383e-06 -1.2049993379322173e-05 -1.5564556361189285e-05 
 2.3698101184102774e-04  2.3456818473882018e-04  2.4312016022713624e-04  2.3240693188604177e-04  2.4075184968059036e-04  2.4924761421760654e-04 