<VTKFile type="UnstructuredGrid" version="1.0" byte_order="LittleEndian" header_type="UInt64">
<UnstructuredGrid>
<Piece NumberOfPoints="7320" NumberOfCells="4880">
<PointData>
<DataArray type="Float64" Name="uy" NumberOfComponents="1" format="ascii">
-9.0432914250134831e-06 -1.2940534061082184e-05 -1.3662565081342784e-05 -1.7650344085014894e-05 -1.8320550324348203e-05 -1.9101281120460880e-05 
 4.7865905396897706e-04  4.8415635908059313e-04  4.8655562942796662e-04  4.8933727604074826e-04  4.9155557494826626e-04  4.9275003343054872e-04 
-1.0463927211308273e-04 -1.0026741596954277e-04 -9.6241398086650086e-05 -9.5817145638443167e-05 -9.2093513564036133e-05 -8.8520574570043087e-05 
-8.6846148409828380e-06 -1.0951930880767921e-05 -9.6944492901465898e-06 -1.3509401630660787e-05 -1.1968421002248008e-05 -1.0528466423985657e-05 
 4.7350631661260539e-04  4.6973935662254752e-04  4.7056244543910904e-04  4.6552198781810644e-04  4.6657771095680951e-04  4.6728801401916701e-04 
 6.3031750172545372e-06  7.0543378181667284e-06  7.9251315626781978e-06  7.6822652264170841e-06  8.7175687183694491e-06  9.7769066791093051e-06 
 1.3669965896245963e-04  1.2281699663408446e-04  1.2084901647699488e-04  1.1049477347750007e-04  1.0804855435097836e-04  1.0581978660367880e-04 
 3.8339325396515608e-04  3.8158751484785095e-04  3.9468062020221338e-04  3.7982494438425934e-04  3.9313314607306585e-04  4.0573079349016862e-04 
-5.8453632704820405e-05 -5.4010811845302525e-05 -6.1901588477859557e-05 -4.9714820432142862e-05 -5.7357091386433841e-05 -6.5627323420485936e-05 
-2.7367931274385575e-04 -2.7244210390584293e-04 -2.6280517942038839e-04 -2.7164410556053148e-04 -2.6197504513005059e-04 -2.5227902734722648e-04 
-2.2418968436078112e-04 -2.0705339112994233e-04 -2.0712185786323308e-04 -1.9110278682077931e-04 -1.9086831518100292e-04 -1.9055654777762497e-04 
-4.3229000769083841e-05 -4.5790380099672447e-05 -4.9794019591363828e-05 -4.8402133269545303e-05 -5.2421351157519131e-05 -5.7094135244444610e-05 
-5.8388104029228649e-05 -5.8665142552366384e-05 -5.1612133441015900e-05 -5.8995400985013606e-05 -5.2005628239376700e-05 -4.5506496124751925e-05 
-2.3441487634132349e-04 -2.1565204130373188e-04 -2.1108587333646298e-04 -1.9725068924390831e-04 -1.9306538227601954e-04 -1.8901841880147549e-04 
 2.3856349091471799e-04  2.6875326916152011e-04  2.5222330885428203e-04  2.9976432587979618e-04  2.8322796892727456e-04  2.6633765709376591e-04 
-4.5481258165458934e-06 -7.5781482706541351e-06 -3.9815558511857011e-06 -1.1199312814496874e-05 -6.6515926231753307e-06 -2.9583651423336292e-06 
 7.2102352567053767e-05  7.7760399985392356e-05  6.8486617096974345e-05  8.3621758577937490e-05  7.3912663139303052e-05  6.5137163222009635e-05 
 3.2222602757900619e-04  2.9284748404549124e-04  2.9902578492149322e-04  2.6429558392688189e-04  2.7001320421305406e-04  2.7571343121948126e-04 
 1.0646307713939391e-04  1.1748760019645583e-04  1.0732597488242596e-04  1.2939747790513025e-04  1.1862107176872031e-04  1.0830605369658439e-04 
-2.7666248788439369e-04 -2.8274161494118801e-04 -2.9929551587248496e-04 -2.8869311307994078e-04 -3.0500303528774206e-04 -3.2221994877201836e-04 
-2.8348584176150814e-04 -2.8355293736582478e-04 -2.9263654120882427e-04 -2.8412603202002915e-04 -2.9278476470852684e-04 -3.0177889801686578e-04 
-2.8809007317562806e-04 -2.9493149624468316e-04 -2.8816431071550984e-04 -3.0214695010261642e-04 -2.9547562684320783e-04 -2.8873650344162096e-04 
-4.2727174606458936e-05 -4.7188230065960799e-05 -5.1249216446578349e-05 -5.1836560646754021e-05 -5.6001357287831131e-05 -6.1596430631333135e-05 
-6.6756820480851442e-06 -4.6441395719898976e-06 -9.4998002462944519e-06 -2.9583651423345931e-06 -6.6515926231756009e-06 -1.1199312814497147e-05 
-4.6538808768595010e-05 -4.4398446564697788e-05 -4.0172667313143065e-05 -4.2727174606459485e-05 -3.8059860608602139e-05 -3.4211613819465527e-05 
 1.5908064029473242e-05  1.9063945514353221e-05  2.0623897238606595e-05  2.2533103221791164e-05  2.3996976010692099e-05  2.5130752223430461e-05 
-4.3555815344543632e-04 -4.3951957280062776e-04 -4.4032590028319341e-04 -4.4320569545602969e-04 -4.4434861375144085e-04 -4.4497301960313312e-04 
 7.6422356217486007e-06  7.2780095363464774e-06  4.2891398408165591e-06  6.8877115721673392e-06  4.2847885471563675e-06  1.4568564169124676e-06 
 6.5497949586181918e-06  9.2877900056979673e-06  4.6315392344089952e-06  1.0958068932454599e-05  6.5006063524819027e-06  2.9573335790494388e-06 
-1.8943713206817880e-04 -1.8253241151029519e-04 -1.9613181697842404e-04 -1.7614719434267282e-04 -1.8923495673312270e-04 -2.0281664918281683e-04 
-4.7568554854892975e-04 -4.7479904852326150e-04 -4.7214134642225317e-04 -4.7325139573351491e-04 -4.7081107860942449e-04 -4.6796497500936054e-04 
-2.2534153543238839e-04 -2.3170645640141911e-04 -2.3731628981406606e-04 -2.3809426391848635e-04 -2.4352247361417482e-04 -2.4956312738146519e-04 
-5.8453632704820215e-05 -4.8468054088616341e-05 -5.4010811845303907e-05 -3.9530616430679466e-05 -4.4352446559044332e-05 -4.9714820432139562e-05 
 2.7558481870966804e-04  2.8214408059247103e-04  2.7396585751769762e-04  2.8864721748537628e-04  2.8054517946124105e-04  2.7286552743650697e-04 
-1.5326690749971897e-04 -1.6504462243814558e-04 -1.6150492174636495e-04 -1.7756761111303662e-04 -1.7353763233440310e-04 -1.6978624581089470e-04 
 5.6506802141911119e-05  5.3864277619907936e-05  5.0408642690945184e-05  5.0875790090472928e-05  4.7655978073506230e-05  4.4640480173181421e-05 
-4.5298764055884638e-04 -4.4367073789678974e-04 -4.6890273765503747e-04 -4.3343867234176285e-04 -4.6047886876900406e-04 -4.8296411768727345e-04 
-1.2725567477631902e-04 -1.1178855084282615e-04 -1.2555215523294883e-04 -9.7156921367029821e-05 -1.0989344988960230e-04 -1.2404896465854654e-04 
-4.1458244215602271e-05 -3.5800666543087051e-05 -4.0987159100966504e-05 -3.0524065418589153e-05 -3.5082473744639337e-05 -4.0248802352397153e-05 
-1.4626531495413216e-04 -1.4358993247245904e-04 -1.5174006313081222e-04 -1.4106506345368022e-04 -1.4881776296574720e-04 -1.5713456251514719e-04 
 6.1092563377798681e-05  5.5902746086507931e-05  5.8764115566413950e-05  5.0875790090474013e-05  5.3864277619909698e-05  5.6506802141911247e-05 
 3.9928743291845755e-04  3.9153461155151567e-04  4.0246188451923212e-04  3.8339325396517164e-04  3.9468062020221387e-04  4.0573079349016862e-04 
 1.1349056965590941e-04  1.2172784113061162e-04  1.2334661188540832e-04  1.3007554785321199e-04  1.3190154497622934e-04  1.3387302311836590e-04 
 1.3042875190425455e-04  1.4351689402029651e-04  1.4369089430122886e-04  1.5703197518659946e-04  1.5756125788218118e-04  1.5800845450003782e-04 
 2.2930675253700014e-04  2.2669431465802232e-04  2.1553331906973573e-04  2.2447273547164854e-04  2.1322506917284629e-04  2.0216119117004894e-04 
 5.7219918133452800e-08  1.7379004106788115e-07  5.5185138171142522e-08  2.2657432774638248e-07  9.3227037165657774e-08  3.9590550712198986e-09 
-1.1774446431403403e-04 -1.1207365080305287e-04 -1.1014943883693607e-04 -1.0679754203577599e-04 -1.0491424022750262e-04 -1.0290145749112342e-04 
 2.5928505232144112e-04  2.7607738646872546e-04  2.7123012179192894e-04  2.9298457460891919e-04  2.8806805097918333e-04  2.8340915280567077e-04 
 7.2898104277910477e-05  7.1460728659224575e-05  8.0035591070310116e-05  7.0066582305427309e-05  7.8678493743620202e-05  8.7879747333413568e-05 
-3.1336191748931409e-05 -3.1005874034679172e-05 -2.7121132006916940e-05 -3.0524065418587500e-05 -2.6992395969943359e-05 -2.3277000614768576e-05 
-1.9962309574334547e-04 -1.9026628699630107e-04 -2.0842285797003881e-04 -1.8162645696326687e-04 -1.9908094988247104e-04 -2.1738938562096649e-04 
-2.5864733579375303e-05 -2.5671627773766241e-05 -2.1715172041853208e-05 -2.5273504521540214e-05 -2.1217335592682899e-05 -1.7692889609979154e-05 
-1.2688826178433149e-04 -1.1859880553763230e-04 -1.1021410127925518e-04 -1.1045156541611316e-04 -1.0248809327997428e-04 -9.5198515476927587e-05 
 1.3669965896245998e-04  1.2084901647699201e-04  1.3624393085726698e-04  1.0581978660368551e-04  1.2004371923975467e-04  1.3591880141679044e-04 
 1.2270733413707671e-04  1.1528199912680647e-04  1.2601473096891864e-04  1.0830605369659027e-04  1.1862107176872097e-04  1.2939747790512745e-04 
-2.8348584176150798e-04 -2.7354290891044364e-04 -2.8355293736583346e-04 -2.6374386102065396e-04 -2.7386016475745021e-04 -2.8412603202001722e-04 
 9.5724799426132812e-06  1.0132321757149135e-05  7.3380581684480863e-06  1.0645157020179079e-05  7.7820484779735998e-06  5.4479014034108000e-06 
 4.1271966519470047e-05  3.5498636616657141e-05  4.0488746003265553e-05  3.0186771799460596e-05  3.4566865491154657e-05  3.9529260384852027e-05 
 4.1505387518507797e-04  4.1927470025327797e-04  4.1061123208054740e-04  4.2353851983834148e-04  4.1486396416203592e-04  4.0585607195662806e-04 
 4.2608391875483082e-05  4.1988177667944754e-05  4.6552734555303713e-05  4.1090811407671130e-05  4.5958941855088139e-05  5.0867919068426832e-05 
-1.4885755641180078e-05 -1.0073348753053332e-05 -1.2926751739046134e-05 -5.6498359207542849e-06 -8.5519332518693030e-06 -1.1196354902317586e-05 
 3.9317597583851503e-04  3.9613211531986986e-04  3.9888079310894945e-04  3.9928743291847230e-04  4.0195364375990116e-04  4.0444536079504452e-04 
-9.5168358379106624e-06 -1.1121397110704313e-05 -1.2648769444148470e-05 -1.2867929367297466e-05 -1.4404046472972697e-05 -1.6320298033896756e-05 
-7.0315786615790429e-05 -6.4445902534056087e-05 -6.4225518932026408e-05 -5.8995400985014792e-05 -5.8665142552368376e-05 -5.8388104029228785e-05 
 9.4368551667782231e-05  9.7022279263907416e-05  1.0116072826698335e-04  9.9478445114478464e-05  1.0369208583296343e-04  1.0819651122470724e-04 
 4.9316138298065588e-06  4.0954052194370429e-06  7.7098399581524691e-06  2.9573335790503264e-06  6.5006063524821653e-06  1.0958068932454909e-05 
 9.5357074749718163e-05  9.9506914152847704e-05  1.0631594329073968e-04  1.0368203976951651e-04  1.1060471684551306e-04  1.1810362605438186e-04 
-4.2727174606458760e-05 -5.1249216446576316e-05 -4.4762143374641697e-05 -6.1596430631334070e-05 -5.4318975316944968e-05 -4.7472352382012074e-05 
 3.2729240351567917e-04  3.2189298474901709e-04  3.3409131532062726e-04  3.1667313403484242e-04  3.2889828352223753e-04  3.4091109571912485e-04 
-9.5054901748577273e-05 -9.0428739199896696e-05 -9.8868904979569557e-05 -8.6099397080780437e-05 -9.4049860166634962e-05 -1.0259450934718674e-04 
 1.5137777248694044e-07  1.2919574818365053e-07 -4.6088985159336620e-07  7.2744505343337140e-08 -6.8414173093589656e-07 -1.2577356496338918e-06 
 1.1474114251354724e-05  1.0771274985848242e-05  1.5102208210770516e-05  1.0104686090251560e-05  1.4078626015886222e-05  1.8329485297859987e-05 
-2.0862650261592537e-04 -2.1700538046570466e-04 -2.1703371961150124e-04 -2.2534153543239625e-04 -2.2543288359256117e-04 -2.2580997092706742e-04 
 1.5196733351949167e-06  3.6087348447287881e-07  5.9565554483413365e-07 -5.4060955084555083e-07 -4.6244510950070093e-07 -2.5703327657716004e-07 
-5.8902615254206317e-06 -3.7977385399794130e-06 -3.8190130634238941e-06 -1.7167180865527553e-06 -2.2512934869326801e-06 -2.3997851330756935e-06 
 2.1621032397929279e-04  2.0667750302336303e-04  2.1362408388274617e-04  1.9721758973146415e-04  2.0394262857120288e-04  2.1109970670851250e-04 
-2.8889807451033773e-04 -2.8005877542635791e-04 -2.8132200277680713e-04 -2.7164410556053338e-04 -2.7244210390585177e-04 -2.7367931274385597e-04 
-2.5703327657717618e-07 -4.6244510950070765e-07 -1.3596328107432971e-06 -5.4060955084574003e-07 -1.3883345211471604e-06 -2.1634650759693747e-06 
-4.6538808768595105e-05 -4.8943972791829961e-05 -4.4398446564699130e-05 -5.1836560646752212e-05 -4.7188230065962195e-05 -4.2727174606458692e-05 
-8.3430221854164074e-05 -7.1636259894588669e-05 -8.4230714162601057e-05 -6.1596430631337675e-05 -7.3108506134262016e-05 -8.5687142848269381e-05 
 7.5082636753360729e-05  6.8996696674069387e-05  7.5495421968094399e-05  6.3021224013534588e-05  6.9154000516409353e-05  7.5806589926069758e-05 
-6.5371738376148237e-05 -6.1207935443492468e-05 -5.6384374948253761e-05 -5.7094135244445891e-05 -5.2421351157518860e-05 -4.8402133269542735e-05 
-2.3441487634132352e-04 -2.3251041738331444e-04 -2.1565204130373795e-04 -2.3056577907469179e-04 -2.1356399185948607e-04 -1.9725068924390202e-04 
 2.4814854500194300e-05  2.5058402633777731e-05  2.1372989232477015e-05  2.5348230517240996e-05  2.1714284243250782e-05  1.8260523837841185e-05 
 2.3417724470436825e-04  2.2521412051460025e-04  2.3563779422613442e-04  2.1621032397930263e-04  2.2661955360963460e-04  2.3733608625337141e-04 
 1.4173246763284766e-04  1.5072628410768384e-04  1.4322195303472188e-04  1.6044942433072882e-04  1.5268994624060056e-04  1.4502468566783650e-04 
-4.5553939884600134e-04 -4.5267603569113879e-04 -4.5884607177445937e-04 -4.4953321763675666e-04 -4.5579691873526214e-04 -4.6174818130283044e-04 
 2.9298457460890981e-04  3.0812010178288821e-04  3.1083315577630380e-04  3.2328228286807834e-04  3.2585117290298533e-04  3.2862660583769641e-04 
-7.0554951702814865e-05 -6.4178004310384482e-05 -6.3033970864099080e-05 -5.8388104029230662e-05 -5.7212781715080369e-05 -5.6016255789742062e-05 
 2.1621032397929304e-04  2.1362408388273969e-04  2.2151110845450837e-04  2.1109970670852158e-04  2.1913172615569958e-04  2.2717714086104200e-04 
 3.8030554732997263e-05  4.3656510876405141e-05  3.6441702596851940e-05  4.9603896496221787e-05  4.1972216512983707e-05  3.5323922039536973e-05 
-1.4946594393567923e-05 -1.7283899453280211e-05 -1.3958487389092959e-05 -1.9798584899111799e-05 -1.6108474002374527e-05 -1.2940143264862860e-05 
-8.9223352587005731e-05 -8.9160765467853430e-05 -9.7609305053020855e-05 -8.9046453323414479e-05 -9.7720706104146391e-05 -1.0679754203577255e-04 
 6.3031750172545067e-06  5.3439012010786506e-06  7.0543378181669673e-06  4.4336078586823102e-06  5.9189207214257580e-06  7.6822652264166216e-06 
 2.4924761421760659e-04  2.4075184968058285e-04  2.4993332487617125e-04  2.3240693188604191e-04  2.4161485206396585e-04  2.5083133335369336e-04 
-1.0679754203577250e-04 -9.7720706104143410e-05 -1.0491424022750258e-04 -8.9046453323414181e-05 -9.5709079380437419e-05 -1.0290145749112342e-04 
-1.6642732187885789e-07 -4.9514180320705525e-07 -2.5387999387798318e-07 -9.3604407232646419e-07 -5.4870765172562364e-07 -2.6610050536745535e-07 
-4.1230695870488529e-06 -8.0396008731173100e-06 -4.1839761361116855e-06 -1.1588671270269721e-05 -7.7554765401799307e-06 -4.2058665463144612e-06 
 2.2533103221790140e-05  2.7108090987819006e-05  2.3996976010692051e-05  3.1646431331808508e-05  2.8221459861551734e-05  2.5130752223430461e-05 
-7.6274276114370675e-05 -7.4169057997886442e-05 -8.7442246393854546e-05 -7.2466269703475882e-05 -8.5925203204042217e-05 -1.0037351839088669e-04 
-1.5326690749971908e-04 -1.5971548117604096e-04 -1.6504462243815119e-04 -1.6663637732470594e-04 -1.7212291819957118e-04 -1.7756761111303095e-04 
 1.2278102751041653e-04  1.1796726263901308e-04  1.2835732323173354e-04  1.1349056965591521e-04  1.2334661188540861e-04  1.3387302311836590e-04 
 3.3636653531226831e-05  3.7213220409915590e-05  3.8190431375491072e-05  4.1090811407670364e-05  4.1988177667946041e-05  4.2608391875482987e-05 
 2.2930675253700036e-04  2.1553331906972969e-04  2.2388994893938409e-04  2.0216119117005783e-04  2.1004743747491807e-04  2.1859103972873107e-04 
 1.5884401339790849e-06  1.7016291952103450e-06  2.4662028380686657e-06  1.5622387005505136e-06  2.3738587871977474e-06  3.1587279001978300e-06 
 3.2933955878504779e-05  2.8788994199729737e-05  3.1228354056881083e-05  2.4994855748091622e-05  2.7326832548355952e-05  2.9561810197606050e-05 
-4.9211546259073403e-05 -4.4997761631758465e-05 -5.1102877999738417e-05 -4.1153500801612037e-05 -4.6798261423669152e-05 -5.2689573562520757e-05 
 7.5958132953827574e-05  6.8478017233313142e-05  7.3297592817165840e-05  6.1488052294950574e-05  6.5794352645511751e-05  7.0443365717438717e-05 
-1.6528340329694513e-06 -7.3945299760003066e-07 -1.4330713673929859e-06  1.4597483934537759e-07 -5.7750643272827767e-07 -1.2055381094431304e-06 
 2.1654423424871144e-06  2.8307644874134534e-06  1.9437641121696202e-06  3.1587279001977885e-06  2.3738587871976945e-06  1.5622387005503118e-06 
 3.2112227022409762e-04  3.4506903960937105e-04  3.4464508248297361e-04  3.6877347703092369e-04  3.6826882230876453e-04  3.6760298848026527e-04 
-1.9110278682077248e-04 -1.7183668757486187e-04 -1.9086831518100279e-04 -1.5324533104712676e-04 -1.7115132599468773e-04 -1.9055654777762497e-04 
-7.9563698900860132e-06 -5.5043487076314789e-06 -4.1563197118276227e-06 -2.7796958574713246e-06 -1.5944733439983595e-06 -5.7617922166196673e-07 
-1.6528340329694695e-06 -1.4330713673929656e-06 -2.3576861321799060e-06 -1.2055381094433377e-06 -2.0773713517283553e-06 -2.9570473391175009e-06 
-1.5387749118930144e-08 -2.3122564017264296e-08 -5.2421646642036335e-11  5.7219918133450741e-08  5.5185138171143032e-08  3.9590550712198986e-09 
 1.2970364793780804e-04  1.2387917597777575e-04  1.1620047713293821e-04  1.1810362605438478e-04  1.1060471684551257e-04  1.0368203976951142e-04 
-3.6274091498353172e-04 -3.4900171612092980e-04 -3.6535344975273929e-04 -3.3507387680177395e-04 -3.5167111919421333e-04 -3.6795554974203439e-04 
-1.4626531495413200e-04 -1.3751798732537695e-04 -1.4358993247246319e-04 -1.2933551508961157e-04 -1.3524445326840506e-04 -1.4106506345367361e-04 
 8.0898439221093222e-05  7.2791234234101450e-05  8.2191561513797522e-05  6.5137163222013769e-05  7.3912663139303662e-05  8.3621758577936107e-05 
 5.6127872317281322e-05  6.6870062419810154e-05  5.7975497697321587e-05  7.9909023050824714e-05  7.0017810040264416e-05  6.0712378228309279e-05 
-7.0315786615790564e-05 -6.4225518932024754e-05 -7.0439854358889049e-05 -5.8388104029232044e-05 -6.4297744724096069e-05 -7.0601881796472562e-05 
 2.3856349091471839e-04  2.3775429583727562e-04  2.6875326916152981e-04  2.3689550645120887e-04  2.6742448133747692e-04  2.9976432587978854e-04 
-9.5168358379106015e-06 -1.2648769444147920e-05 -1.0421120487609365e-05 -1.6320298033896915e-05 -1.3825217967211274e-05 -1.1536641094106268e-05 
 2.0981961803592954e-05  2.4762148164620358e-05  1.9295109058671921e-05  2.9516996061253907e-05  2.3298357251683188e-05  1.7818793303519837e-05 
 1.9307751130361665e-05  1.5333199755480220e-05  1.8828165881250844e-05  1.1474114251355673e-05  1.5102208210770601e-05  1.8329485297859987e-05 
-1.2725567477631935e-04 -1.2555215523294512e-04 -1.3778383471580846e-04 -1.2404896465855340e-04 -1.3650534999103426e-04 -1.4943361917432534e-04 
-3.6654137673289034e-04 -3.5363179037127383e-04 -3.5165171712219585e-04 -3.4054022479641278e-04 -3.3846883391979121e-04 -3.3654969162188911e-04 
 5.0287930910982023e-04  4.9806801532705424e-04  4.9727891789243576e-04  4.9275003343056617e-04  4.9155557494826605e-04  4.8933727604073059e-04 
 5.5870761581910978e-06  5.8379656840816856e-06  5.7310832970062383e-06  5.9433582972474788e-06  5.8201313376885650e-06  5.6541784938128694e-06 
-8.6846148409827974e-06 -9.6944492901462290e-06 -7.6322049077638260e-06 -1.0528466423985687e-05 -8.4473456127771623e-06 -6.6325303958230397e-06 
 4.5069327577804981e-04  4.6701880940640803e-04  4.4423809119532507e-04  4.8147286604623916e-04  4.6109900145290195e-04  4.3704823734908916e-04 
 1.9307751130361753e-05  2.3802394716950687e-05  2.2369170856691109e-05  2.8038563781227332e-05  2.7035944893029804e-05  2.5695383150408333e-05 
-3.6710511428364216e-06 -2.2912857432846417e-06 -4.2519832492292721e-06 -1.2546852840872376e-06 -2.7741177465932962e-06 -4.7793251663302303e-06 
 1.4173246763284745e-04  1.4322195303471727e-04  1.3405137259757098e-04  1.4502468566784002e-04  1.3546207698595224e-04  1.2647665853360911e-04 
-1.2726698505140895e-06 -1.4285282822313434e-06 -1.9935781857942546e-06 -1.4195358401406413e-06 -2.0450620907790853e-06 -2.6565268456017049e-06 
-2.7367931274385575e-04 -2.6280517942038091e-04 -2.6743991458380974e-04 -2.5227902734723651e-04 -2.5646891111383942e-04 -2.6116099529775678e-04 
-3.6330596689771409e-04 -3.5005510607959140e-04 -3.5331901359806993e-04 -3.3654969162190195e-04 -3.3983950786702668e-04 -3.4341608388544555e-04 
-2.5426047328149057e-06 -3.5576097614392024e-06 -1.9136643153121785e-06 -4.7793251663301152e-06 -2.7741177465931823e-06 -1.2546852840868226e-06 
-4.4904496905326255e-04 -4.5571901581000233e-04 -4.4950580958067903e-04 -4.6174818130284594e-04 -4.5579691873526171e-04 -4.4953321763673942e-04 
-7.5441250719806764e-06 -6.5480056492003693e-06 -1.1296663996889854e-05 -5.6498359207546745e-06 -1.0073348753053637e-05 -1.4885755641180115e-05 
-4.1619909566542807e-04 -4.2068368393328152e-04 -4.2412079920680940e-04 -4.2466474112256615e-04 -4.2819423055377888e-04 -4.3170230825578440e-04 
-9.1695556824890279e-07 -1.1327812865653395e-06 -9.5812740967771528e-07 -1.3159163687985798e-06 -1.0545788938625896e-06 -8.9174214371369118e-07 
-2.2516969029161415e-06 -2.5598861586802617e-06 -1.8668502566252190e-06 -2.6565268456016824e-06 -2.0450620907790455e-06 -1.4195358401404803e-06 
 1.9621555572071886e-04  1.8550291302125749e-04  1.9521532900632391e-04  1.7494683757079868e-04  1.8440909021617377e-04  1.9446948470448850e-04 
-2.1132128235281464e-05 -2.1837971243409924e-05 -2.5736132062313778e-05 -2.2559912761819712e-05 -2.6482484018720735e-05 -3.1008210168201722e-05 
-1.1692807911628537e-05 -1.4293275595060792e-05 -1.6088552124507886e-05 -1.7127558307480272e-05 -1.8870685942683954e-05 -2.0308562286962518e-05 
 3.9301631163000001e-04  3.9054905665344384e-04  3.8673536564381387e-04  3.8804896028683708e-04  3.8402593206694340e-04  3.8029249872285735e-04 
-2.3441487634132436e-04 -2.2764746502304067e-04 -2.5139112524905739e-04 -2.2103767114319581e-04 -2.4424789102725324e-04 -2.6857394546071382e-04 
 5.5870761581910969e-06  5.7310832970060503e-06  5.4776622770113930e-06  5.6541784938130269e-06  5.5667129178221680e-06  5.3241478647784804e-06 
 4.7350631661260544e-04  4.7225695268468044e-04  4.6973935662256188e-04  4.7026866028677109e-04  4.6813308051813477e-04  4.6552198781808958e-04 
-6.5923306657661733e-05 -6.3661352989320458e-05 -5.8410585960591820e-05 -6.1596430631334531e-05 -5.6001357287830833e-05 -5.1836560646751175e-05 
 4.3585071281715831e-05  3.9364299887380077e-05  4.6177550391442426e-05  3.5323922039539616e-05  4.1972216512984154e-05  4.9603896496221266e-05 
-3.8748106963358222e-04 -3.8474232768097750e-04 -3.9400795627883567e-04 -3.8197429060621215e-04 -3.9144886084407812e-04 -4.0039949687151736e-04 
-7.0315786615790632e-05 -7.7007814685122372e-05 -7.3639337721426553e-05 -8.4129409072417521e-05 -8.0425673042939933e-05 -7.7036391720575342e-05 
 1.5151204644119492e-06  4.6393821985927342e-06  2.7714308330695276e-06  8.3699447543820335e-06  6.2599050312432214e-06  4.3831517727346789e-06 
 3.2222602757900657e-04  3.4883098798781917e-04  3.1516809143755973e-04  3.7467268257704745e-04  3.4132630339528153e-04  3.0801769081099381e-04 
 4.2543090643330707e-04  4.3850310584566678e-04  4.1567272543095545e-04  4.5069327577806190e-04  4.2915527998799223e-04  4.0547704356386867e-04 
 2.9298457460890976e-04  2.9100277652760302e-04  3.0812010178289813e-04  2.8930821291618230e-04  3.0624676293950750e-04  3.2328228286806630e-04 
 2.5928505232144128e-04  2.5927179375653109e-04  2.7607738646873468e-04  2.5952194894367616e-04  2.7607631546496556e-04  2.9298457460890943e-04 
-5.1034955182979974e-04 -5.1524552686668819e-04 -5.1009302593800596e-04 -5.1881979380389665e-04 -5.1451843084843922e-04 -5.0579562183349590e-04 
-7.4671049199335948e-05 -6.8354284130201344e-05 -7.3813393312318132e-05 -6.2292541133484938e-05 -6.7308629924876746e-05 -7.2739654568519839e-05 
-9.4558167672537311e-05 -8.5487582549810220e-05 -8.9279758965029045e-05 -7.7036391720578797e-05 -8.0425673042940163e-05 -8.4129409072415123e-05 
-2.8723497326971810e-06 -3.2631791310015769e-06 -1.8838636508972130e-06 -3.4938638142001869e-06 -2.2829581349440944e-06 -6.7344245008917851e-07 
 2.1621032397929312e-04  2.2151110845450140e-04  2.2661955360963422e-04  2.2717714086105111e-04  2.3228042657866195e-04  2.3733608625337141e-04 
 7.2898104277910138e-05  7.6443801792710553e-05  6.4019067147915115e-05  8.0010737463569786e-05  6.7431255266111998e-05  5.6089097599034606e-05 
-3.0520852397463149e-04 -3.1439827577780258e-04 -3.3698824357362869e-04 -3.2356192329463437e-04 -3.4654138761604431e-04 -3.6884512846221333e-04 
 3.7402978048622917e-05  4.6155883118671447e-05  4.1132946135981558e-05  5.6127872317282311e-05  5.0760186283781906e-05  4.5617005868361041e-05 
-2.0281664918281669e-04 -1.8923495673311671e-04 -1.9690540728067147e-04 -1.7614719434267171e-04 -1.8381602564601860e-04 -1.9154808032364578e-04 
-2.1432827778692238e-05 -2.2378072850898706e-05 -2.5737432872666034e-05 -2.3277000614770056e-05 -2.6992395969943597e-05 -3.0524065418587100e-05 
-6.5256888507657205e-05 -6.7899167185236597e-05 -6.0490553790144966e-05 -7.0554951702816247e-05 -6.3033970864098945e-05 -5.6016255789742062e-05 
 1.1893338991355715e-04  1.1071280843616147e-04  1.1673766518702303e-04  1.0278222317870413e-04  1.0834602417886664e-04  1.1430611168058104e-04 
-1.4641048090253808e-06 -1.4490526379532266e-06 -1.1139269306349299e-06 -1.3159163687985632e-06 -1.1327812865653681e-06 -9.1695556824890512e-07 
 4.6427864564748289e-04  4.5072488670358420e-04  4.5141251932701427e-04  4.3594646783053163e-04  4.3666503240727682e-04  4.3701500237909314e-04 
-1.5713083914096809e-04 -1.4897302108002105e-04 -1.5575677937919365e-04 -1.4106506345367995e-04 -1.4780424066953996e-04 -1.5446024221492225e-04 
 5.8861784053141582e-05  5.7406289400996716e-05  5.1483494489959242e-05  5.6089097599035588e-05  5.0271807930571796e-05  4.4730968061205999e-05 
-1.8828811128075886e-05 -1.5723092105216478e-05 -1.9355839713552419e-05 -1.2940143264864003e-05 -1.6108474002374751e-05 -1.9798584899111677e-05 
 3.6978166628396026e-04  3.7544996504762225e-04  3.6892557995579127e-04  3.8096184987141849e-04  3.7470084697389776e-04  3.6833898183647834e-04 
-2.8134259652919276e-04 -2.9729734112676640e-04 -2.8636671799631272e-04 -3.1324976908612821e-04 -3.0215520891403047e-04 -2.9118800957728504e-04 
-1.8726520547873649e-05 -1.8238545435373158e-05 -2.1980947196986101e-05 -1.7692889609980522e-05 -2.1217335592683139e-05 -2.5273504521539973e-05 
-7.2085927588320774e-07 -1.6055204691390465e-06 -1.1366177875864368e-06 -2.3997851330756833e-06 -2.2512934869326657e-06 -1.7167180865526767e-06 
-2.8775795197524441e-05 -3.1667507057841658e-05 -3.2530204517151900e-05 -3.4780546849715456e-05 -3.5579108193418857e-05 -3.6110630774915358e-05 
-3.1839971166464099e-05 -3.1416865696740590e-05 -2.6918115852520460e-05 -3.1008210168202088e-05 -2.6482484018720464e-05 -2.2559912761818092e-05 
-7.9563698900860658e-06 -4.1563197118276532e-06 -6.4835940017326376e-06 -5.7617922166239395e-07 -3.0584232536175520e-06 -5.2155928628712787e-06 
 9.6500005809393061e-05  8.9311567977532491e-05  9.0051260165091777e-05  8.2361502372615126e-05  8.3310801779453052e-05  8.4072547974769663e-05 
-3.9295033829403356e-04 -3.8909569996528864e-04 -3.8677481693875584e-04 -3.8508536019792272e-04 -3.8262377665679211e-04 -3.8038268779414739e-04 
-2.8134259652919233e-04 -2.8636671799630334e-04 -2.6776420385742587e-04 -2.9118800957729214e-04 -2.7281924775260797e-04 -2.5450143609664466e-04 
-3.3623638497829882e-04 -3.4593624259974702e-04 -3.4498301469325810e-04 -3.5554815140256769e-04 -3.5441939236165914e-04 -3.5353803621140093e-04 
-9.5965450394583019e-05 -9.2670785607756358e-05 -9.0313033745734926e-05 -8.9507654959446197e-05 -8.7286777087553164e-05 -8.4843440486522651e-05 
-8.3430221854164345e-05 -9.5590055548080863e-05 -9.5307532090868613e-05 -1.0870678912901764e-04 -1.0854412732330074e-04 -1.0907744980392322e-04 
-1.1774446431403407e-04 -1.2271834282396194e-04 -1.1207365080305619e-04 -1.2762853934689239e-04 -1.1681696692909811e-04 -1.0679754203577255e-04 
 7.6422356217486499e-06  1.0451311332649755e-05  7.2780095363467510e-06  1.3055981580995819e-05  9.7266883405572147e-06  6.8877115721676229e-06 
-8.5229947790553458e-05 -8.4825460854921040e-05 -7.6681849348171879e-05 -8.4509945003841699e-05 -7.6217006215829411e-05 -6.8603217463464832e-05 
-8.4843440486522543e-05 -8.7286777087550331e-05 -7.9582815127506899e-05 -8.9507654959445276e-05 -8.1929389536913638e-05 -7.4671049199335975e-05 
-8.5229947790553445e-05 -7.6681849348169792e-05 -7.4702445116181073e-05 -6.8603217463466959e-05 -6.6836751196262348e-05 -6.5234576140230812e-05 
 4.1157400426365106e-04  4.0869236267000383e-04  4.1777469840877427e-04  4.0585607195664427e-04  4.1486396416203652e-04  4.2353851983832787e-04 
-5.8126062824905569e-05 -5.3609036357261705e-05 -5.5338533680915504e-05 -4.9211546259075436e-05 -5.1102877999738485e-05 -5.2689573562520757e-05 
-3.6274091498353193e-04 -3.6535344975272807e-04 -3.7419730447259454e-04 -3.6795554974204924e-04 -3.7676001305099509e-04 -3.8540983078625199e-04 
-1.0368845959540300e-05 -1.1565594642740627e-05 -1.4105486642183237e-05 -1.2932023743401252e-05 -1.5444649638166988e-05 -1.8155387074782459e-05 
-3.6330596689771404e-04 -3.6487182749742010e-04 -3.5005510607960164e-04 -3.6654137673290113e-04 -3.5165171712219564e-04 -3.3654969162188911e-04 
 2.1530779956730172e-04  2.0546600211245232e-04  2.0484835809997354e-04  1.9621555572072580e-04  1.9521532900632405e-04  1.9446948470448850e-04 
-4.3170230825578457e-04 -4.3386658471972249e-04 -4.3852208485071229e-04 -4.3555815344545269e-04 -4.4032590028319373e-04 -4.4497301960313312e-04 
 1.2769208476254418e-04  1.2319687091406729e-04  1.2093571038041855e-04  1.1893338991356105e-04  1.1673766518702308e-04  1.1430611168058104e-04 
-6.7344245008916813e-07 -2.2829581349439890e-06 -4.5491151737940298e-07 -3.4938638142001191e-06 -1.9920570091681129e-06 -5.3181314473412874e-08 
 6.3722638883349217e-05  7.6563790612262472e-05  6.7487179019476190e-05  9.0859137566053064e-05  8.0457633776973074e-05  7.1260548646495496e-05 
 4.4195955295075882e-04  4.4668375853368933e-04  4.3714428603555444e-04  4.5116601488365417e-04  4.4172576747918775e-04  4.3160440462177883e-04 