<VTKFile type="UnstructuredGrid" version="1.0" byte_order="LittleEndian" header_type="UInt64">
<UnstructuredGrid>
<Piece NumberOfPoints="7326" NumberOfCells="4884">
<PointData>
<DataArray type="Float64" Name="ux" NumberOfComponents="1" format="ascii">
 1.1019874730819059e-03  1.0822671495277214e-03  1.1052068560318017e-03  1.0625466261095530e-03  1.0853175039828343e-03  1.1086704573851573e-03 
 3.1478379810860645e-04  3.0709112127455681e-04  3.0549184012223515e-04  2.9965664800223865e-04  2.9802511568485302e-04  2.9609767807172875e-04 
 1.4163098591490314e-03  1.4200862355821710e-03  1.4294373700411659e-03  1.4243165411648823e-03  1.4334077397211357e-03  1.4422459615391701e-03 
 8.8034303831043773e-04  8.9555634546691770e-04  8.8452322173986130e-04  9.1171939657938138e-04  9.0128985317720347e-04  8.8940532860243228e-04 
 1.5350581428360613e-03  1.5338313047675513e-03  1.5381543559354037e-03  1.5325943077724130e-03  1.5370397295548595e-03  1.5410352748740557e-03 
 2.9395889841107127e-04  3.0842936578009641e-04  2.9239288352460839e-04  3.2299178900007129e-04  3.0615143168650946e-04  2.8969057764458418e-04 
 9.2964347873990868e-04  9.2654335898944640e-04  9.3906163401321426e-04  9.2306164283578664e-04  9.3621912601986161e-04  9.4932236171269349e-04 
 2.9943352804692530e-04  2.9080203434478412e-04  2.9193777042583075e-04  2.8211754676535638e-04  2.8354318466633678e-04  2.8470484231554684e-04 
 2.3060258247159323e-04  2.2185901862184875e-04  2.2989523084050343e-04  2.1352742564164379e-04  2.2125818793682520e-04  2.2906675610709213e-04 
 1.3054347947718304e-03  1.2868906233054317e-03  1.3033242031379347e-03  1.2680794806087367e-03  1.2851856804343888e-03  1.3017729592650531e-03 
 5.1778470195308071e-04  5.0874263773726227e-04  4.9658967274074275e-04  4.9891573765955275e-04  4.8696178787806233e-04  4.7523818516769986e-04 
 1.5350581428360613e-03  1.5381543559353562e-03  1.5394996339900006e-03  1.5410352748741114e-03  1.5422580931522712e-03  1.5434544070389836e-03 
 1.5529384207972588e-03  1.5523831160830291e-03  1.5531653531762298e-03  1.5516693351780811e-03  1.5524950719937075e-03  1.5531923802179783e-03 
 1.4479444703442134e-04  1.4333812254278504e-04  1.4333055843865613e-04  1.4198037923156788e-04  1.4190907120449040e-04  1.4194821128129514e-04 
 1.5057344937861150e-03  1.4981856242713104e-03  1.5078521637216574e-03  1.4904195374031929e-03  1.5006120764840683e-03  1.5102249219169971e-03 
 1.4395157958220597e-03  1.4397866286572228e-03  1.4334270228631566e-03  1.4402526938377097e-03  1.4337068307421071e-03  1.4271112494781296e-03 
 1.5017654632321149e-04  1.4672441366746626e-04  1.4438460991712571e-04  1.4340247274159589e-04  1.4132212014761035e-04  1.3908790104692723e-04 
 2.3336272306001370e-04  2.2820734533026459e-04  2.2774212644780773e-04  2.2322731893249413e-04  2.2281772412345005e-04  2.2221559286602469e-04 
 1.4456697300406053e-03  1.4566422443377412e-03  1.4445040327068157e-03  1.4675540572913733e-03  1.4559473366432040e-03  1.4436514661948247e-03 
 1.6278947563292103e-04  1.5984869047611517e-04  1.6133570812280353e-04  1.5704327432997545e-04  1.5852113501320543e-04  1.6002057267118248e-04 
 1.5425324025996256e-03  1.5552507605032385e-03  1.5470338486821581e-03  1.5675629455866151e-03  1.5595592001065139e-03  1.5517242599758460e-03 
 2.3336272306001397e-04  2.3320810565536057e-04  2.3907127766144919e-04  2.3287719619412975e-04  2.3890851731884886e-04  2.4500122890818441e-04 
 1.4639564116195763e-04  1.4270305135664037e-04  1.4244597074293221e-04  1.3937298807730828e-04  1.3917422130376656e-04  1.3893789392268539e-04 
 1.6709808835150216e-03  1.6758239147751351e-03  1.6775837413541105e-03  1.6803620522276431e-03  1.6826065767286591e-03  1.6842092914939814e-03 
 1.4739016018732829e-03  1.4731413595544651e-03  1.4784416132029765e-03  1.4724870085299146e-03  1.4777865739033012e-03  1.4828578950570263e-03 
 8.9652214030611326e-04  8.8507893222321396e-04  9.0114393298394344e-04  8.7261621407813477e-04  8.8873014208889665e-04  9.0644710441178120e-04 
 1.2163222757776754e-03  1.2287907676125490e-03  1.2141486927685283e-03  1.2419798980831339e-03  1.2272272768095380e-03  1.2121693902681545e-03 
 1.4637109313320163e-03  1.4470343368344467e-03  1.4590445007563128e-03  1.4296641952826221e-03  1.4421624744697457e-03  1.4551954527133621e-03 
 2.8597803525573561e-04  2.8726965875031714e-04  2.9520411638181117e-04  2.8840489581850642e-04  2.9666320101371161e-04  3.0468361231880393e-04 
 1.5334906631894771e-03  1.5423470228090907e-03  1.5464546222208224e-03  1.5512853044667308e-03  1.5549911637636042e-03  1.5591078319491397e-03 
 2.1018570205392871e-04  2.0601979487155754e-04  2.1122133966509124e-04  2.0191768029911560e-04  2.0690804598127473e-04  2.1212551223497437e-04 
 1.8678789636968572e-04  1.8784819497856073e-04  1.8158701355502067e-04  1.8884662715383974e-04  1.8250702334709272e-04  1.7653597246602211e-04 
 3.7957630349026369e-04  3.6675738878031366e-04  3.7951344947185817e-04  3.5340112967253339e-04  3.6603355598935648e-04  3.7903885966440791e-04 
 2.5854410128896217e-04  2.4032617390076230e-04  2.5654915446486452e-04  2.2259048694865116e-04  2.3788774675228766e-04  2.5327529971269440e-04 
 2.8156029048284886e-04  2.9485474511487962e-04  2.9845754399254683e-04  3.0824396023384251e-04  3.1260084203587051e-04  3.1568367016258507e-04 
 1.4830183638490026e-03  1.4870378253148187e-03  1.4868902712267729e-03  1.4909508498681071e-03  1.4907236112394241e-03  1.4906029154548770e-03 
 1.4626052054038492e-03  1.4563457291892875e-03  1.4623939821611603e-03  1.4498030083657134e-03  1.4561374797889849e-03  1.4623337453857543e-03 
 1.5935439673353887e-03  1.5849305636243996e-03  1.5915432380669337e-03  1.5757366356784891e-03  1.5823573475688888e-03  1.5892468271943314e-03 
 1.5186312952376482e-03  1.5171680127344721e-03  1.5152919000762362e-03  1.5157021285662027e-03  1.5137969115255046e-03  1.5117395398390376e-03 
 1.4391850085553955e-03  1.4333834070140640e-03  1.4396281188858156e-03  1.4273753184393917e-03  1.4338422760470711e-03  1.4402526938401344e-03 
 1.6354499781342423e-04  1.6453775041572473e-04  1.5957076692691341e-04  1.6552902578078425e-04  1.6047919928036927e-04  1.5580632008892927e-04 
 1.4472575773125996e-03  1.4463144882834046e-03  1.4308164523674483e-03  1.4465774675418203e-03  1.4302491115792380e-03  1.4138081397276751e-03 
 8.5549248419382719e-04  8.6240922943096399e-04  8.4974626028046522e-04  8.7003314314926055e-04  8.5671328480963469e-04  8.4338336146603729e-04 
 7.8580559331357686e-04  7.7002005862051800e-04  7.8123030620752662e-04  7.5299874759842214e-04  7.6404349427362881e-04  7.7604970174730567e-04 
 1.0463904158636923e-03  1.0415455263639809e-03  1.0582328877698009e-03  1.0364486605846245e-03  1.0539086469137991e-03  1.0717054471341024e-03 
 1.3837617045571245e-03  1.3930100591036990e-03  1.3929327214202850e-03  1.4019644516347733e-03  1.4020238873412591e-03  1.4022449811513598e-03 
 9.8450758848999125e-04  9.7474345363602450e-04  9.9212191909297067e-04  9.6435932554476186e-04  9.8204557111643840e-04  1.0006510203502375e-03 
 4.8945923925526125e-04  4.7059689870736682e-04  4.7771780877787183e-04  4.5186051460611814e-04  4.5854264496181371e-04  4.6518741712188748e-04 
 2.8156029048284875e-04  2.7742868725947738e-04  2.9485474511488916e-04  2.7232798276330633e-04  2.9000472726621064e-04  3.0824396023383085e-04 
 2.8681981292633124e-04  2.8804262567533637e-04  2.7894724454065203e-04  2.8897264984848841e-04  2.8021678532833542e-04  2.7137038122535857e-04 
 2.4515537110752236e-04  2.5130612660946089e-04  2.4477306658894925e-04  2.5769439675845252e-04  2.5092091301500699e-04  2.4419377936176683e-04 
 2.5760746732741172e-04  2.5118463308149874e-04  2.5088442577308573e-04  2.4500122890819308e-04  2.4469844172972941e-04  2.4419377936341313e-04 
 9.7616972523987159e-05  8.5147412705235739e-05  9.7959267495882732e-05  7.3258820618589488e-05  8.5633501370885250e-05  9.8042134585293343e-05 
 1.2506328077650400e-03  1.2690082821126543e-03  1.2633601942433092e-03  1.2870523591681042e-03  1.2818827105874160e-03  1.2768750048184761e-03 
 1.3370217754176959e-04  1.4098581787174523e-04  1.3838323645276661e-04  1.4892660752291453e-04  1.4595292210264283e-04  1.4292688967155180e-04 
 1.5325561141119510e-03  1.5311425967477069e-03  1.5305730273158802e-03  1.5297024327044649e-03  1.5291368035488275e-03  1.5284283903283249e-03 
 9.0494010314730723e-04  9.0101621728207355e-04  9.1357952517694910e-04  8.9661248009179518e-04  9.0985701646599515e-04  9.2306164283575119e-04 
 8.7899940692228210e-04  8.8746156750236702e-04  8.7471488098824792e-04  8.9661248002698179e-04  8.8333537724548611e-04  8.7003314314923149e-04 
 4.0487295493428271e-04  3.9223607591814624e-04  4.0548903595717033e-04  3.7903885966442417e-04  3.9223535670311236e-04  4.0577481627383419e-04 
 7.8171305761086222e-04  7.7755529689129213e-04  7.6916220765107244e-04  7.7381967554480404e-04  7.6564369383090591e-04  7.5678319558518219e-04 
 1.4391850085553959e-03  1.4454502994413292e-03  1.4445814900454152e-03  1.4516175834814614e-03  1.4506133297858444e-03  1.4498030083656601e-03 
 1.4138396464229367e-03  1.4210494284071660e-03  1.4207319083176871e-03  1.4282371669208172e-03  1.4277093390366422e-03  1.4273753184393390e-03 
 3.6537314146561754e-04  3.5384190419769841e-04  3.5624927899546806e-04  3.4210429971907782e-04  3.4493322221550474e-04  3.4742230192658872e-04 
 2.2207318212508206e-04  2.1120453572511568e-04  2.1771961491546491e-04  2.0088265841941382e-04  2.0720544823656055e-04  2.1329372624953006e-04 
 4.0031980230192005e-04  3.9177656164355597e-04  3.8842769117796176e-04  3.8352386563023116e-04  3.8011717938518403e-04  3.7618266539244017e-04 
 1.2957127485859306e-04  1.3004056432211304e-04  1.3024026999242298e-04  1.3060065997892709e-04  1.3075095194997247e-04  1.3116026220722526e-04 
 1.2845535401130536e-03  1.2963111735124471e-03  1.2940265084761936e-03  1.3084059948203003e-03  1.3056200872831449e-03  1.3032079822258081e-03 
 3.4711233069517204e-04  3.4478950055285656e-04  3.5544031410205594e-04  3.4210429971349087e-04  3.5321946796801037e-04  3.6401615768392976e-04 
 1.5517150887750142e-03  1.5537271885936196e-03  1.5535602284981365e-03  1.5554184214608099e-03  1.5551970084807412e-03  1.5549952519969203e-03 
 5.8239077822678132e-04  5.7310871779677050e-04  5.9024457443179019e-04  5.6281821672677745e-04  5.8081382460963926e-04  5.9846414699592872e-04 
 1.6887845916276766e-03  1.6800483220650293e-03  1.6866924289824700e-03  1.6714124659219461e-03  1.6779516598546974e-03  1.6842092914939814e-03 
 1.5572373858502146e-03  1.5566166985268594e-03  1.5568110921795534e-03  1.5555352170746059e-03  1.5561079694446326e-03  1.5563667056582612e-03 
 2.7040221413659717e-04  2.7510302740420300e-04  2.7750660193994289e-04  2.7958654842404713e-04  2.8226038474635185e-04  2.8483085345538820e-04 
 1.5239730233055973e-04  1.5040369331087227e-04  1.5152298236438070e-04  1.4850697209956788e-04  1.4961721219927234e-04  1.5076727822314280e-04 
 1.5489764870773169e-03  1.5452302794441977e-03  1.5475090227230703e-03  1.5409333955331776e-03  1.5435773218511538e-03  1.5460441417186996e-03 
 1.3545441399059133e-03  1.3452368143448445e-03  1.3562756913765379e-03  1.3356253024914848e-03  1.3468535763661897e-03  1.3583155621502421e-03 
 5.9785295236302444e-05  6.2605603737727415e-05  5.6150567912327357e-05  6.5582053919718161e-05  5.9271039981835668e-05  5.2779891297529973e-05 
 1.5124454555430109e-03  1.5027622282584752e-03  1.5147479183861866e-03  1.4929417609711249e-03  1.5054043740628327e-03  1.5174434031805714e-03 
 1.3935375643862689e-03  1.3939628169893539e-03  1.4079996610892093e-03  1.3950266175760814e-03  1.4089283431876934e-03  1.4223743625261893e-03 
 1.5527494454773134e-03  1.5519300259697892e-03  1.5528281836365899e-03  1.5509944115733279e-03  1.5519980538332419e-03  1.5526917966191117e-03 
 1.5308723914109243e-03  1.5294812147723645e-03  1.5319587585793349e-03  1.5280600329697501e-03  1.5305596336846312e-03  1.5329015481299522e-03 
 1.5434900436361509e-03  1.5448397310328051e-03  1.5443888073005925e-03  1.5460590330765840e-03  1.5457308086903702e-03  1.5452131085288343e-03 
 3.1478379810860683e-04  3.1293239264801006e-04  3.2289027239019611e-04  3.1075362421606603e-04  3.2111788225684088e-04  3.3125853021792774e-04 
 1.4700301915610798e-04  1.5076117085085849e-04  1.4715801163562583e-04  1.5486134599977360e-04  1.5094141158952993e-04  1.4729895006311233e-04 
 4.6191604648909755e-04  4.4919507380972135e-04  4.5096534564193885e-04  4.3675337690059256e-04  4.3825407042802578e-04  4.3951358143532972e-04 
 1.5497983287058247e-03  1.5459294957934689e-03  1.5457521310249394e-03  1.5417702712726409e-03  1.5415665287903393e-03  1.5415784248668661e-03 
 1.0810434278878788e-03  1.0764476627391864e-03  1.0925632852290133e-03  1.0717054471341440e-03  1.0883956348587960e-03  1.1052296511588565e-03 
 1.1602467888460980e-03  1.1651436735716681e-03  1.1389283110452651e-03  1.1707354588439004e-03  1.1441856862780904e-03  1.1172967478959655e-03 
 1.5900285882698563e-03  1.5889648006915448e-03  1.5954251403898180e-03  1.5878700900506708e-03  1.5939757104455807e-03  1.6002431452160988e-03 
 1.6030858407522196e-03  1.5984024528344137e-03  1.5965282446857973e-03  1.5932167951170897e-03  1.5915917615058057e-03  1.5900285882698561e-03 
 1.3217258388258750e-03  1.3161513970842802e-03  1.3303813171411691e-03  1.3105867592595897e-03  1.3252223835831035e-03  1.3395466053294609e-03 
 4.6256645743977413e-04  4.7770334384740314e-04  4.8455487861691826e-04  4.9282444774776269e-04  5.0029354506020028e-04  5.0702319370309328e-04 
 1.6798622386262666e-05  2.0185440896672030e-05  2.5175157274150377e-05  2.3821922317878658e-05  2.8889981765300184e-05  3.3653273578175052e-05 
 1.6278947563292117e-04  1.6418556899568858e-04  1.6557450032231671e-04  1.6558193147710683e-04  1.6698889521682460e-04  1.6852796132740553e-04 
 2.9943352804692540e-04  3.0706754701138926e-04  2.9791311032867390e-04  3.1497565942512822e-04  3.0558215142656724e-04  2.9609767806832484e-04 
 2.5854410128896196e-04  2.4212874971068355e-04  2.4032617390076877e-04  2.2611382848826512e-04  2.2481052629319507e-04  2.2259048694864029e-04 
 4.6875170354016872e-04  4.7674879166680848e-04  4.8518991460027916e-04  4.8402852522297824e-04  4.9277932032375726e-04  5.0166795812799981e-04 
 2.2906142355099513e-04  2.2288300813859966e-04  2.3554432835526544e-04  2.1692852205198386e-04  2.2911799058064657e-04  2.4195800172601944e-04 
 1.3294888542435821e-03  1.3404808852759988e-03  1.3285893831623307e-03  1.3516955587737568e-03  1.3399881085850481e-03  1.3279367316770094e-03 
 1.2574278006834960e-03  1.2433850539824861e-03  1.2617157712709610e-03  1.2290134310744179e-03  1.2477902636816459e-03  1.2667047209536392e-03 
 8.5029620717189775e-04  8.6470730502959277e-04  8.5308144616762682e-04  8.8034303831046701e-04  8.6898966618945627e-04  8.5637144918320851e-04 
 1.4830183638490026e-03  1.4823838995422609e-03  1.4785461370652737e-03  1.4818255325283500e-03  1.4779100603846207e-03  1.4738883136030958e-03 
 6.3088344796944165e-04  6.2215002330752596e-04  6.1038176275563752e-04  6.1256099885989991e-04  6.0067524350465584e-04  5.8915260523027888e-04 
 3.4711233069517167e-04  3.3904725806778891e-04  3.3669696148129415e-04  3.3125853021793923e-04  3.2888430803484740e-04  3.2608842287316849e-04 
 1.9554749362701829e-04  1.8901934588113847e-04  1.9976257094573530e-04  1.8243888199588523e-04  1.9274915316114973e-04  2.0384896931663219e-04 
 1.1880633830621363e-03  1.1913349786136277e-03  1.2084780164777413e-03  1.1951341064586262e-03  1.2122812458627550e-03  1.2290134310743695e-03 
 1.4795515597703912e-03  1.4881732015803613e-03  1.4833059396809317e-03  1.4963386549295516e-03  1.4916340489905858e-03  1.4870054328457480e-03 
 1.3935375643862684e-03  1.3781038001428438e-03  1.3939628169893970e-03  1.3621233482852030e-03  1.3786437205285087e-03  1.3950266175760287e-03 
 1.5524593846055238e-03  1.5503036344014128e-03  1.5517303316554443e-03  1.5477423415734732e-03  1.5494737512494112e-03  1.5509648004051917e-03 
 1.5935439673353887e-03  1.5875348674690042e-03  1.5849305636244481e-03  1.5818263650507276e-03  1.5789678512171960e-03  1.5757366356784314e-03 
 6.9204453016724458e-04  7.0353000913149619e-04  6.8512397175389799e-04  7.1552518879423313e-04  6.9722697761477560e-04  6.7764717402492042e-04 
 5.9078579695179365e-04  6.0890394460016539e-04  5.8672640153043963e-04  6.2706379280942203e-04  6.0502274936022067e-04  5.8249919663458892e-04 
 1.2667047209536390e-03  1.2477902636816066e-03  1.2532808647065640e-03  1.2290134310744148e-03  1.2339290282716950e-03  1.2395076615297448e-03 
 3.9502698126643533e-04  3.7504089943302544e-04  3.7757346494650623e-04  3.5532042056908461e-04  3.5848846354845208e-04  3.6045976183763615e-04 
 1.3365799803106293e-04  1.4237965208345214e-04  1.3236455370643440e-04  1.5121825076853479e-04  1.4068496574055295e-04  1.3086760505296225e-04 
 4.5186051460610079e-04  4.3967353169475698e-04  4.5854264496181322e-04  4.2669467752940918e-04  4.4582916715389171e-04  4.6518741712188748e-04 
 1.4962128865450915e-03  1.5065926751114793e-03  1.5107094727206160e-03  1.5173301951258761e-03  1.5206989739036242e-03  1.5247642430946040e-03 
 1.3846338328886408e-03  1.3967376521178214e-03  1.3883334179402662e-03  1.4084699890420068e-03  1.4001588167976652e-03  1.3920707671810403e-03 
 1.5524593846055238e-03  1.5535987062184487e-03  1.5541820707180313e-03  1.5544789984646280e-03  1.5550179934225323e-03  1.5555352170745498e-03 
 1.3040065875467041e-04  1.3075176726415008e-04  1.3152177155507233e-04  1.3116026220723014e-04  1.3189569908669075e-04  1.3291147186100929e-04 
 4.0031980230192054e-04  3.9747727448774956e-04  4.0936338814192842e-04  3.9424326446813089e-04  4.0665577195061055e-04  4.1869290164770606e-04 
 1.6709808835150219e-03  1.6660486261941725e-03  1.6758239147751871e-03  1.6607803793665960e-03  1.6704865015953463e-03  1.6803620522275820e-03 
 1.3178557114304582e-04  1.2916123725615093e-04  1.2994360811270213e-04  1.2689214745318918e-04  1.2770618389270320e-04  1.2840743867556804e-04 
 2.5760746732741204e-04  2.5700429729864541e-04  2.6435679569194591e-04  2.5616977201584708e-04  2.6376078597871661e-04  2.7137038122535857e-04 
 1.2662527131467149e-03  1.2781655744441690e-03  1.2755438767259035e-03  1.2904375094978217e-03  1.2873029759536830e-03  1.2845535401130536e-03 
 1.4138396464229369e-03  1.4069995494761899e-03  1.4145872618896414e-03  1.3999129988382347e-03  1.4077336920377730e-03  1.4155687592694831e-03 
 1.5017654632321171e-04  1.5630944931162771e-04  1.5320779274015532e-04  1.6295344915325725e-04  1.5962688068551633e-04  1.5624704404395556e-04 
 1.3187658103140034e-03  1.3187006603175618e-03  1.3046617223069219e-03  1.3189610326610676e-03  1.3049975155895602e-03  1.2905529603042894e-03 
 1.1422310980382135e-03  1.1401464807209601e-03  1.1551365254065149e-03  1.1381952232546462e-03  1.1536949246950883e-03  1.1690369769110308e-03 
 1.5168511904019052e-03  1.5213853455333826e-03  1.5214586605964448e-03  1.5256963012265129e-03  1.5257094961418360e-03  1.5257847899515563e-03 
 2.8681981292633162e-04  2.8463570138903766e-04  2.9313346055348988e-04  2.8211754675726096e-04  2.9091005566756265e-04  2.9965664800222824e-04 
 1.5611673799742572e-03  1.5608125468336875e-03  1.5602280527159927e-03  1.5601826653592881e-03  1.5596808378164630e-03  1.5592424823378396e-03 
 1.3944749385356604e-03  1.4085911941886583e-03  1.4056434247444382e-03  1.4220959731634346e-03  1.4194251384144945e-03  1.4169619644143383e-03 
 4.1469426316130591e-04  3.9555302776757203e-04  4.0321891560533542e-04  3.7676977559480295e-04  3.8387750508582833e-04  3.9097480873305143e-04 
 1.9554749362701805e-04  1.8552285911491178e-04  1.8901934588114384e-04  1.7615815818987297e-04  1.7938404142015993e-04  1.8243888199587663e-04 
 1.2202083812451478e-03  1.2325915610696164e-03  1.2181454302481285e-03  1.2457080281752602e-03  1.2311517526524859e-03  1.2163222757776754e-03 
 1.6467110938757777e-04  1.5943981565971080e-04  1.6015014417713374e-04  1.5461084117230457e-04  1.5523681349157242e-04  1.5582908463079653e-04 
 1.2128877554358646e-03  1.2250547277264617e-03  1.2061346680132391e-03  1.2380654270349692e-03  1.2188676631792511e-03  1.1994425457455234e-03 
 1.6114187960670240e-03  1.6216997751510006e-03  1.6143001422317033e-03  1.6318945607576131e-03  1.6244791780159005e-03  1.6174594631763117e-03 
 1.4121176548250334e-03  1.4049005644032300e-03  1.4162812723313247e-03  1.3977861940610175e-03  1.4093220491256113e-03  1.4204315487969833e-03 
 2.8681981292633118e-04  2.7894724454064374e-04  2.7782390750280913e-04  2.7137038122536800e-04  2.7021961207742350e-04  2.6880959416814633e-04 
 5.3884518123507570e-04  5.2183444571915906e-04  5.2381329662891027e-04  5.0490065311223050e-04  5.0632241513860646e-04  5.0761970480871883e-04 
 3.8239557737790363e-04  3.9095203606391197e-04  3.7947878208588145e-04  3.9977216959787790e-04  3.8813762997428713e-04  3.7618266541412839e-04 
 1.5576419303299565e-03  1.5570382155394500e-03  1.5549494505238761e-03  1.5565449253302011e-03  1.5544586633138941e-03  1.5518820103054113e-03 
 1.2253031313189050e-03  1.2386715970167681e-03  1.2364738438052181e-03  1.2525159613437061e-03  1.2497607350443580e-03  1.2473300586280879e-03 
 3.7816916858383914e-04  3.8934164879096043e-04  3.9749495735431727e-04  4.0059384655612336e-04  4.0928087236005018e-04  4.1718222825791712e-04 
 2.6118027057862387e-04  2.7191428851838876e-04  2.7254117661764608e-04  2.8242047436127880e-04  2.8378845261192221e-04  2.8424877131995432e-04 
 1.4243165411648301e-03  1.4375517398843389e-03  1.4334077397211346e-03  1.4503873486584665e-03  1.4461165535343439e-03  1.4422459615391701e-03 
 1.4652279185295796e-03  1.4578223229595485e-03  1.4633132307071343e-03  1.4500661997193939e-03  1.4558580166269908e-03  1.4614944377681425e-03 
 1.6030858407522198e-03  1.5965282446857483e-03  1.6016947741993423e-03  1.5900285882699140e-03  1.5954251403898193e-03  1.6002431452160988e-03 
 1.6594443362228730e-03  1.6692058360569723e-03  1.6649928461806038e-03  1.6787874934309785e-03  1.6750068742840271e-03  1.6704950842057063e-03 
 1.4625384850725079e-04  1.4336445718639594e-04  1.4320470707203503e-04  1.4070311066996053e-04  1.4057320749666710e-04  1.4039683529781783e-04 
 1.5334906631894764e-03  1.5378188962123609e-03  1.5251159264023659e-03  1.5425324025996785e-03  1.5298820983833089e-03  1.5168572846509794e-03 
 1.4456697300406049e-03  1.4445040327067710e-03  1.4341540336907338e-03  1.4436514661948742e-03  1.4328306951971212e-03  1.4220959731633838e-03 
 1.3213534683468064e-03  1.3304671967208331e-03  1.3093844466598504e-03  1.3394249635139627e-03  1.3188958884757724e-03  1.2977895898161817e-03 
 1.4456697300406056e-03  1.4585239099188922e-03  1.4566422443377867e-03  1.4706625706469472e-03  1.4689739911216771e-03  1.4675540572913228e-03 
 1.3837617045571243e-03  1.3858085361455447e-03  1.3777096664527441e-03  1.3882632155948369e-03  1.3798525814627629e-03  1.3714734258784089e-03 
 1.6354499781342423e-04  1.5957076692690858e-04  1.5904378596381003e-04  1.5580632008893480e-04  1.5534155977484825e-04  1.5486134599976877e-04 
 1.3637537446613524e-03  1.3734839863552991e-03  1.3793348898740092e-03  1.3830086983684057e-03  1.3884760229344530e-03  1.3944749385356599e-03 
 1.0625466261095105e-03  1.0664815243696308e-03  1.0853175039828330e-03  1.0704501038348046e-03  1.0896435367844348e-03  1.1086704573851573e-03 
 1.0874785673912338e-03  1.0737490992965971e-03  1.0754078735482930e-03  1.0596921247622785e-03  1.0619107854584584e-03  1.0640120243631942e-03 
 9.7731867011523676e-04  9.9540790772944024e-04  9.8792621701721439e-04  1.0142098117699866e-03  1.0071628857925455e-03  9.9964248480142732e-04 
 1.5252448651678404e-03  1.5337064339987795e-03  1.5383696534105090e-03  1.5421972023421959e-03  1.5464672973299095e-03  1.5512853044666742e-03 
 4.2134595557653630e-04  4.0797971814783806e-04  4.1038248251371284e-04  3.9424326446716400e-04  3.9718677538745981e-04  3.9977216959786576e-04 
 3.4236472281141504e-05  4.5297509331692887e-05  3.9106424267618922e-05  5.6578294160006398e-05  4.9856499518087950e-05  4.3629882729592728e-05 
 1.4703459379406410e-03  1.4660310262363159e-03  1.4748730798189954e-03  1.4616307888142735e-03  1.4707740617425408e-03  1.4795515597703912e-03 
 1.0864302206843562e-04  1.1117844081973809e-04  1.1042515387362315e-04  1.1352843191906063e-04  1.1282520067872465e-04  1.1259344612756787e-04 
 4.1182302365229798e-05  3.7932105163709604e-05  3.4586047938339032e-05  3.4712698127645783e-05  3.1211995130475490e-05  2.7886373568421413e-05 
 1.4292688967155198e-04  1.4595292210263822e-04  1.5037184680799788e-04  1.4892660752291589e-04  1.5376321245362686e-04  1.5848582991007123e-04 
 1.5272888148798035e-05  7.5577817976881455e-06  1.5161161130365025e-05  1.3808754979023614e-18  7.6661173918139693e-06  1.5074969169769520e-05 
 6.9563533011098369e-04  6.7587149535027109e-04  6.8563159633699782e-04  6.5514613327060387e-04  6.6478653984431498e-04  6.7490537200059814e-04 
 7.9213662793516213e-05  8.5009821209719135e-05  8.5448008516462450e-05  9.0550720482394142e-05  9.1325101134597222e-05  9.2146331478557068e-05 
 2.7232798276329365e-04  2.6680490063619934e-04  2.8409613982181663e-04  2.6055643459123908e-04  2.7790953956670605e-04  2.9595230506828947e-04 
 1.3211506087885297e-03  1.3298715501177968e-03  1.3316487761930544e-03  1.3383162766796085e-03  1.3401754026012725e-03  1.3423453373802411e-03 
 2.8404782998176067e-04  2.7483519757405311e-04  2.8968721820109018e-04  2.6534159424178424e-04  2.7999328949468590e-04  2.9530633766568649e-04 
 1.5017654632321176e-04  1.5071223050643347e-04  1.5630944931163289e-04  1.5101394979891099e-04  1.5687514522515539e-04  1.6295344915325194e-04 
 3.8352386563021782e-04  3.7362251305789862e-04  3.7138863042197824e-04  3.6401615768394250e-04  3.6161967335476651e-04  3.5880242829265332e-04 
 1.5781661612132283e-03  1.5759114075071488e-03  1.5790339336742177e-03  1.5733264784788753e-03  1.5763692364638563e-03  1.5796466328180194e-03 
 6.3088344796944197e-04  6.4195868454960210e-04  6.2215002330754483e-04  6.5338608017777929e-04  6.3343293249361506e-04  6.1256099885988007e-04 
 1.2473013338495703e-03  1.2569193456180682e-03  1.2593614335404521e-03  1.2662527131345495e-03  1.2688525594886154e-03  1.2718060060678835e-03 
 2.3060258247159304e-04  2.2345287232318221e-04  2.2185901862185520e-04  2.1634341270453529e-04  2.1498208464048704e-04  2.1352742564163465e-04 
 1.6030858407522196e-03  1.6076480374173194e-03  1.5984024528344625e-03  1.6124081776862824e-03  1.6028823676618837e-03  1.5932167951170325e-03 
 1.6665477172434987e-03  1.6639359562715715e-03  1.6743140889481510e-03  1.6610750652096666e-03  1.6712930126915090e-03  1.6816681706966624e-03 
 4.1523247751981441e-04  4.0901822017943006e-04  3.9426211465072488e-04  4.0195511071297282e-04  3.8762250385092345e-04  3.7359507650226899e-04 
 5.8249919663458871e-04  5.9550450301487396e-04  5.7394832444531221e-04  6.0872189770413239e-04  5.8705163785448657e-04  5.6476109915303918e-04 
 7.3160218523556534e-05  6.1310761242998224e-05  7.3274551672483130e-05  4.9997308013984709e-05  6.1664402103082410e-05  7.3258820618584555e-05 
 3.4236472281141660e-05  4.0323717607647702e-05  4.5297509331694778e-05  4.6892625988695061e-05  5.1959218992225221e-05  5.6578294160005496e-05 
 1.5563579559195820e-04  1.6010553178415860e-04  1.4453369380170965e-04  1.6375101327864276e-04  1.4850084315429780e-04  1.3353071986956232e-04 
 1.4528924988759474e-03  1.4608041490759723e-03  1.4533953582257946e-03  1.4685494032654154e-03  1.4614691648309551e-03  1.4540904034840768e-03 
 5.0448040332664798e-04  4.9258567018801243e-04  5.1189745701288065e-04  4.7978780365727790e-04  4.9956001738841788e-04  5.1935519954355029e-04 
 4.1469426316130634e-04  4.0321891560532371e-04  4.2073858682353490e-04  3.9097480873306878e-04  4.0868137040866732e-04  4.2669467752939021e-04 
 1.2092446053724247e-03  1.2207294967280858e-03  1.2174004785107976e-03  1.2325741371089251e-03  1.2287467716916606e-03  1.2253031313189048e-03 
 1.4528924988759467e-03  1.4449593132428371e-03  1.4448524943630468e-03  1.4367007305925289e-03  1.4366136090644742e-03  1.4367304309149756e-03 
 1.3967341135311983e-03  1.3981728705887170e-03  1.4052597448053724e-03  1.3999129988382347e-03  1.4069995494762344e-03  1.4138396464229367e-03 
 1.4163098591490311e-03  1.4067065717917526e-03  1.4200862355822153e-03  1.3968394166980322e-03  1.4107286078911675e-03  1.4243165411648297e-03 
 4.5755016399478681e-04  4.4775369626365969e-04  4.4524743783451302e-04  4.3818994420286305e-04  4.3546554882905475e-04  4.3238871114859571e-04 
 8.1530508712083756e-04  8.0122856670608881e-04  8.1312834501680894e-04  7.8580559331360754e-04  7.9754047434198454e-04  8.1069027683402346e-04 
 4.4379600388847303e-04  4.3192648407508450e-04  4.2724922950048767e-04  4.1911771305328633e-04  4.1504643163015498e-04  4.1086846797241575e-04 
 1.3007209795732287e-03  1.3110897180305715e-03  1.3130484676872102e-03  1.3211506087885769e-03  1.3232652973427940e-03  1.3257089204073722e-03 
 2.8185971418385560e-05  2.1486301043020326e-05  2.2619062179918622e-05  1.4899494889695682e-05  1.5808046821242492e-05  1.6798622386262476e-05 
 1.5350581428360611e-03  1.5305820258800179e-03  1.5338313047675984e-03  1.5256963012265131e-03  1.5292289693091376e-03  1.5325943077723570e-03 
 1.3549015268602179e-03  1.3564478688040495e-03  1.3467517968224075e-03  1.3583155621423094e-03  1.3482412774359523e-03  1.3383162766795601e-03 
 1.5239730233055984e-04  1.5372978765663351e-04  1.5461176211700321e-04  1.5508305846137358e-04  1.5597106127380396e-04  1.5704327432996951e-04 
 1.3291147186100932e-04  1.3189569908668663e-04  1.3327027136598378e-04  1.3116026220723020e-04  1.3230822292601324e-04  1.3370427625705402e-04 
 3.4922971945622371e-04  3.5831707779385977e-04  3.5995689839269886e-04  3.6713368531914096e-04  3.6911030881596886e-04  3.7099265361401811e-04 