<VTKFile type="UnstructuredGrid" version="1.0" byte_order="LittleEndian" header_type="UInt64">
<UnstructuredGrid>
<Piece NumberOfPoints="7326" NumberOfCells="4884">
<PointData>
<DataArray type="Float64" Name="ux" NumberOfComponents="1" format="ascii">
 1.5364102070730566e-03  1.5369671764881886e-03  1.5478881504325925e-03  1.5378910680958792e-03  1.5484839949765543e-03  1.5589458004936594e-03 
 1.5430650964022015e-03  1.5416437962460798e-03  1.5404386047751190e-03  1.5399785234551469e-03  1.5387986567387884e-03  1.5375367977805813e-03 
 1.3746889719849751e-04  1.3560167391138612e-04  1.3681319568706985e-04  1.3397780298330154e-04  1.3497676502694232e-04  1.3626194686940294e-04 
 1.7660061050284696e-04  1.8196123219553750e-04  1.8518099159610025e-04  1.8731199821279008e-04  1.9085634203414804e-04  1.9443103458668251e-04 
 2.8429780272327097e-04  2.8662386421002804e-04  2.9627508733221772e-04  2.8866901314963912e-04  2.9844640269566480e-04  3.0857698478545253e-04 
 8.0727563115354944e-04  8.1842116425627140e-04  8.0443423942884473e-04  8.3048835463366032e-04  8.1623752107025794e-04  8.0123598212329498e-04 
 1.5344389191820585e-03  1.5418386189134257e-03  1.5376860096195306e-03  1.5488329276053597e-03  1.5450524451964675e-03  1.5412219716184510e-03 
 2.0064341696453912e-04  2.0548387329078388e-04  2.1343925941986274e-04  2.0988784854128475e-04  2.1835984904441859e-04  2.2694685345466087e-04 
 1.2601222771853825e-04  1.2862200198887242e-04  1.2726022113878472e-04  1.3198831757951519e-04  1.3007265276395380e-04  1.2848292972368917e-04 
 4.3267393581448646e-04  4.3024191839318387e-04  4.4581358431621616e-04  4.2766681317059715e-04  4.4274087707388081e-04  4.5796146175976644e-04 
 2.8597803525573555e-04  2.9520411638180163e-04  2.9064824509597294e-04  3.0468361231881402e-04  2.9983379510518373e-04  2.9493229607570494e-04 
 4.9553024870646449e-04  4.8762925665312925e-04  4.7622165915468904e-04  4.7978780365727204e-04  4.6887741411090890e-04  4.5702428060866927e-04 
 1.5427204036791448e-03  1.5441576269280234e-03  1.5406492854066038e-03  1.5455052572085220e-03  1.5421584878698286e-03  1.5383621838553590e-03 
 1.1559845499255884e-03  1.1343545277153080e-03  1.1413294348750298e-03  1.1134943696431004e-03  1.1194013457334867e-03  1.1262586112067965e-03 
 1.3532005301321560e-03  1.3463756756519158e-03  1.3362401040382178e-03  1.3401617941503267e-03  1.3297003218587962e-03  1.3189610326610225e-03 
 1.5101394979890473e-04  1.5479905242080945e-04  1.6000433853985765e-04  1.5848582991007804e-04  1.6418322906692847e-04  1.6992524283218532e-04 
 1.9000886297288524e-04  1.8523989317419128e-04  1.7960627826541241e-04  1.8029370836351489e-04  1.7508043506757285e-04  1.6992524283218532e-04 
 1.1027930577783379e-04  1.1069243300646248e-04  1.1521835445066707e-04  1.1118816820477826e-04  1.1609685954847254e-04  1.2083760933362180e-04 
 1.2902582347345533e-03  1.3051952072108918e-03  1.2951348206907158e-03  1.3198182919414768e-03  1.3096069839616982e-03  1.3000673997506070e-03 
 8.5843511904623007e-04  8.4637910463260496e-04  8.5951512185856928e-04  8.3950376223428775e-04  8.4709296285905553e-04  8.5540120420005345e-04 
 1.5779773898429753e-03  1.5690105630448530e-03  1.5689960281634863e-03  1.5594120209825278e-03  1.5595883792139218e-03  1.5599738995282829e-03 
 5.4998796244861911e-04  5.4221207969503630e-04  5.3067441847588770e-04  5.3456952862742605e-04  5.2343043210534583e-04  5.1137239626798670e-04 
 1.5226650994607065e-03  1.5165102439773190e-03  1.5254933073825202e-03  1.5101256792343927e-03  1.5196913573215039e-03  1.5284196310718504e-03 
 8.6242154869827024e-04  8.6068759864440722e-04  8.4794988115047905e-04  8.5540120503554788e-04  8.4709296318388944e-04  8.3950376171512849e-04 
 1.5757985767947886e-03  1.5797407643414086e-03  1.5763331043968324e-03  1.5838480894210755e-03  1.5806580758866737e-03  1.5766241326373273e-03 
 6.3496293246953755e-04  6.5704118372883165e-04  6.4743067762902044e-04  6.7764717402494319e-04  6.6961271768134652e-04  6.6046905750939417e-04 
 1.4950939369610470e-03  1.4859888147726681e-03  1.4963584788754618e-03  1.4762820781957925e-03  1.4873591588413953e-03  1.4977791651611587e-03 
 7.5012543331956288e-04  7.5746893282525190e-04  7.7564228909160048e-04  7.7014511399822174e-04  7.8715537898573352e-04  8.0154615136310042e-04 
 2.0988784854127600e-04  2.1401530487283086e-04  2.2304084986910107e-04  2.1758263881905976e-04  2.2713501479181193e-04  2.3679838632606947e-04 
 1.6122875450995494e-04  1.6563771890782864e-04  1.6519463960944914e-04  1.7032847488865536e-04  1.6988405834833048e-04  1.6942309915207631e-04 
 1.2127462101175388e-03  1.2278325468359835e-03  1.2054943264640868e-03  1.2425250250879881e-03  1.2204754166667200e-03  1.1989279371207831e-03 
 4.1086846797241564e-04  3.9468991915782856e-04  4.0613144507925823e-04  3.7882001575055611e-04  3.9045588873341997e-04  4.0128806988676285e-04 
 1.5838480894210191e-03  1.5882951242928017e-03  1.5851994860988760e-03  1.5929555664470304e-03  1.5900085544866547e-03  1.5862796207558750e-03 
 3.9097480873305100e-04  3.8387750508581597e-04  3.7039342874130825e-04  3.7676977559479921e-04  3.6392607734096933e-04  3.5035716994157669e-04 
 9.3443579747723633e-04  9.2367614479572815e-04  9.0538208204626056e-04  9.0752559547438081e-04  8.9088167372501387e-04  8.7681661795771288e-04 
 1.5093559007271938e-03  1.5167453041983340e-03  1.5254715300027425e-03  1.5247642430946601e-03  1.5327674065041539e-03  1.5410413464976322e-03 
 1.6991989099241036e-03  1.7015444315388174e-03  1.7097947387747204e-03  1.7030399392769760e-03  1.7116611267674854e-03  1.7200040342812094e-03 
 1.1862146275391017e-04  1.1452263431636881e-04  1.1968644442567677e-04  1.1027930577783866e-04  1.1521835445066723e-04  1.2083760933362180e-04 
 9.2641492427724358e-04  9.0129820276034392e-04  9.1902996724364317e-04  8.7681662127579024e-04  8.9088167163806097e-04  9.0752559513269492e-04 
 1.4266921735553531e-03  1.4208347341797514e-03  1.4117368769095008e-03  1.4154019960915310e-03  1.4059989254943325e-03  1.3962748951992451e-03 
 1.2527830609165508e-03  1.2686367209170807e-03  1.2563318555996795e-03  1.2843116744029695e-03  1.2716825515359154e-03  1.2599689173333828e-03 
 1.1901518461874560e-03  1.1803225120805842e-03  1.2088294612321382e-03  1.1723735089236278e-03  1.2004032066314644e-03  1.2275412505951152e-03 
 1.2304050606080856e-03  1.2287572591084537e-03  1.2018646009038262e-03  1.2296609467603748e-03  1.2013519392938916e-03  1.1723735089028164e-03 
 7.7045182627626249e-04  7.6091406557370230e-04  7.8017577324921957e-04  7.5205286467550320e-04  7.7146816326643735e-04  7.8899654495296473e-04 
 1.5200349072097879e-03  1.5124634293602005e-03  1.5133206765611689e-03  1.5042376196137525e-03  1.5051745228753502e-03  1.5063114658926883e-03 
 5.7488227156817602e-04  5.9400548527845543e-04  5.8736665141405223e-04  6.1268894407773321e-04  6.0535906057629558e-04  5.9846414699592872e-04 
 1.2600418101680819e-04  1.2239456025186791e-04  1.2783983308649498e-04  1.1862146275391551e-04  1.2383671624626225e-04  1.2978261433330780e-04 
 1.5412219716184508e-03  1.5310379403094679e-03  1.5311699056906923e-03  1.5202155062056732e-03  1.5202880703212682e-03  1.5207298217303788e-03 
 1.4717043922457440e-03  1.4673598130089350e-03  1.4638576492615419e-03  1.4630524785175397e-03  1.4593573803785545e-03  1.4556450070856632e-03 
 1.4357856123626081e-04  1.4171615399556203e-04  1.3760464647541058e-04  1.3974090797031101e-04  1.3592331547547672e-04  1.3254637092128396e-04 
 1.4233196907884084e-03  1.4342872464156869e-03  1.4277807520221061e-03  1.4448121845170088e-03  1.4384357431971564e-03  1.4322456276600179e-03 
 4.4027491218216096e-04  4.7015579835521439e-04  4.4278907685525834e-04  5.0130079986469497e-04  4.7186771757164853e-04  4.4305624038984323e-04 
 8.0123598212329477e-04  7.8818091997350870e-04  7.9072661792937667e-04  7.7425127662548543e-04  7.7796380921725159e-04  7.8119794683412453e-04 
 1.7215292824456892e-05  2.3919315553554009e-05  2.7745054082845759e-05  3.0279937016180585e-05  3.4273185063140792e-05  3.8576441512237751e-05 
 1.2882703081704239e-04  1.2874138007584588e-04  1.2840272643353101e-04  1.2913624278331203e-04  1.2839273263249537e-04  1.2804739288751931e-04 
 1.6704950842057068e-03  1.6750068742839739e-03  1.6821438197975403e-03  1.6787874934309805e-03  1.6861514755213795e-03  1.6934562073046631e-03 
 1.5462521817140576e-03  1.5450518141727925e-03  1.5468617897772018e-03  1.5434775748915466e-03  1.5454749766783786e-03  1.5472896025517447e-03 
 1.4194821128129514e-04  1.3959404966283287e-04  1.4109237617178667e-04  1.3746889719850279e-04  1.3878529066204456e-04  1.4034275260879110e-04 
 1.4690274502054525e-04  1.4767370152380117e-04  1.4921203822911843e-04  1.4850697209956796e-04  1.4997889330773702e-04  1.5166403645057463e-04 
 1.4834925607537122e-03  1.4828062699491812e-03  1.4901287364498456e-03  1.4822426664423947e-03  1.4894902114495820e-03  1.4964370905761479e-03 
 1.5338505683257016e-03  1.5284700315163389e-03  1.5310986671004743e-03  1.5226650994607613e-03  1.5254933073825215e-03  1.5284196310718504e-03 
 3.2445057639007282e-04  3.3292655042603352e-04  3.4108442114376511e-04  3.4085710700639828e-04  3.4943549481622466e-04  3.5816353310916428e-04 
 8.8837754183384080e-04  8.7509954689747550e-04  8.8419425588044632e-04  8.6214286567365178e-04  8.7039077189020764e-04  8.7960465756493878e-04 
 1.5780951908382747e-03  1.5722316068067412e-03  1.5759308556486686e-03  1.5657511039959290e-03  1.5693574258450473e-03  1.5732428751571094e-03 
 2.1018570205392882e-04  2.1122133966508476e-04  2.1672535573195038e-04  2.1212551223498310e-04  2.1781015642311226e-04  2.2358590084836004e-04 
 1.5546697698947470e-03  1.5565504468062160e-03  1.5528023039994938e-03  1.5584682029603878e-03  1.5549351750166753e-03  1.5507038069777781e-03 
 1.5581755919730112e-03  1.5579048498654557e-03  1.5583748568021958e-03  1.5572104852025139e-03  1.5576103038711067e-03  1.5580485681938618e-03 
 1.6307771934908682e-03  1.6290772858791600e-03  1.6375748471702039e-03  1.6271042900535826e-03  1.6352880026998121e-03  1.6436528805678201e-03 
 1.5462521817140576e-03  1.5468617897771537e-03  1.5478305148468232e-03  1.5472896025518004e-03  1.5484140041379451e-03  1.5492462271930003e-03 
 2.3183485459782633e-04  2.2897775016606794e-04  2.3775867569287464e-04  2.2607577611255791e-04  2.3466490837946452e-04  2.4369038800576716e-04 
 8.7578274918966232e-04  8.7896639292517364e-04  8.9205796676049666e-04  8.8181508142694395e-04  8.9434714905674891e-04  9.0774305573628356e-04 
 1.1241643606013543e-03  1.1250498317746974e-03  1.1099690299194115e-03  1.1262586112068347e-03  1.1114800892078204e-03  1.0963009797376041e-03 
 4.3961869644109622e-04  4.4245175614947448e-04  4.6980748235576778e-04  4.4305624049218340e-04  4.7186771754379641e-04  5.0130080036494813e-04 
 1.6653428753964609e-04  1.7152265745179520e-04  1.7365266037470644e-04  1.7660061050285358e-04  1.7899382589851832e-04  1.8137318923267429e-04 
 2.6626932985976761e-04  2.6393812598057571e-04  2.7749730758500508e-04  2.6156422373751478e-04  2.7485757786798023e-04  2.8866901314962687e-04 
 1.4175001277764028e-04  1.3967652405910705e-04  1.4535019582304179e-04  1.3755627262574354e-04  1.4295607214083887e-04  1.4914657523205422e-04 
 1.5988687005726006e-03  1.5877631371334887e-03  1.5956316160350176e-03  1.5761506764703124e-03  1.5841269268472551e-03  1.5922766255962956e-03 
 6.1540550230712132e-04  6.0345233321372667e-04  6.0808900306625160e-04  5.9093033998496361e-04  5.9631836970064150e-04  6.0112597197575638e-04 
 1.4985599126313032e-03  1.4920273761672735e-03  1.4912339242595350e-03  1.4851271773692568e-03  1.4842557947326550e-03  1.4834925607537120e-03 
 1.6704950842057061e-03  1.6717632387453353e-03  1.6608978977630427e-03  1.6727574029030761e-03  1.6617574529120762e-03  1.6507586772483876e-03 
 1.4385128792045122e-04  1.4652893548940118e-04  1.4502075112152716e-04  1.4946622827322260e-04  1.4776181933823362e-04  1.4624492265949857e-04 
 2.3679838632606958e-04  2.2713501479180493e-04  2.4220568065162879e-04  2.1758263881906077e-04  2.3197506681669669e-04  2.4696513167913578e-04 
 1.3198161519792858e-04  1.3041683030666371e-04  1.3157683555135337e-04  1.2924513908487513e-04  1.3005206029061703e-04  1.3122042212697984e-04 
 7.1484180789327108e-04  7.0412405304936425e-04  6.9594218757307227e-04  6.9428119822042959e-04  6.8581019357158337e-04  6.7614690204871922e-04 
 1.6916832730905484e-04  1.8133373109517726e-04  1.7393642240021796e-04  1.9437694644340163e-04  1.8644420386997596e-04  1.7841881696869610e-04 
 5.1088557937922381e-05  5.3375780210347578e-05  6.3651394446906904e-05  5.5764965460724689e-05  6.6425875191912826e-05  7.6571477119126050e-05 
 6.9180335469853427e-04  7.1001545350679726e-04  7.0134571252967591e-04  7.2742247710622739e-04  7.1809732896313679e-04  7.0965244016069897e-04 
 1.2275412505951152e-03  1.2004032066314262e-03  1.2274072288009203e-03  1.1723735089236283e-03  1.2013519392875024e-03  1.2296609465174526e-03 
 1.5141361083065903e-05  1.9595502319829342e-05  7.3356294688088371e-06  2.3821922317875551e-05  1.1814820949361077e-05  0.0000000000000000e+00 
 1.4543769302597176e-03  1.4481007527010201e-03  1.4408569730553654e-03  1.4421171206844233e-03  1.4345173163088087e-03  1.4266921735553535e-03 
 2.8866901314962735e-04  2.9775726463558884e-04  3.0626423861479079e-04  3.0630446586663501e-04  3.1525953192563459e-04  3.2445057639007244e-04 
 1.8450288465033624e-04  1.8964371947819870e-04  1.7688895631101485e-04  1.9437694644340082e-04  1.8133373109518303e-04  1.6916832730905473e-04 
 1.3889924208879088e-04  1.3760324829633662e-04  1.3792434137970452e-04  1.3641745929974424e-04  1.3666201432399909e-04  1.3711985884629400e-04 
 1.1118816820477340e-04  1.0551369557503234e-04  1.1187966987802167e-04  9.9713566501462967e-05  1.0577342944523764e-04  1.1254991575008902e-04 
 1.4716547617383928e-04  1.4444276890111275e-04  1.4665692743475470e-04  1.4194821128130073e-04  1.4391215578557335e-04  1.4624492265949857e-04 
 1.2913624278330747e-04  1.2985508959226829e-04  1.2874551344861722e-04  1.3098800573332279e-04  1.2949050342226653e-04  1.2840710156425785e-04 
 1.5184487791485156e-03  1.5132022069042075e-03  1.5192269212414098e-03  1.5076762631168108e-03  1.5140897688005806e-03  1.5200397655238565e-03 
 1.4485378296307035e-03  1.4492181092746255e-03  1.4338721474108985e-03  1.4504747679742599e-03  1.4350111189049691e-03  1.4190017227829013e-03 
 1.3526532796802630e-04  1.3767682576260214e-04  1.3493071560764628e-04  1.4045906037576131e-04  1.3732020445916701e-04  1.3461392711122753e-04 
 9.6435932554472358e-04  9.4631114637539100e-04  9.5491199351558124e-04  9.2930369735066542e-04  9.3642572885726659e-04  9.4459253945187234e-04 
 3.4104615385781984e-04  3.4988682057814091e-04  3.5792305440409452e-04  3.5816353310917870e-04  3.6663653602269161e-04  3.7523500994214614e-04 
 1.2223323976311897e-03  1.2085834243252146e-03  1.2104958088503290e-03  1.1955550268789399e-03  1.1967244199656780e-03  1.1983274368374357e-03 
 1.5455045840879042e-03  1.5464018371918855e-03  1.5472236237681813e-03  1.5471423316968630e-03  1.5480347900828160e-03  1.5487483621549653e-03 
 1.5779773898429753e-03  1.5786743530914710e-03  1.5690105630449011e-03  1.5795304982405601e-03  1.5695150105108318e-03  1.5594120209824717e-03 
 1.5950823335298981e-04  1.6368050192828301e-04  1.5841522572918458e-04  1.6810093472621805e-04  1.6250089906881199e-04  1.5733740513422574e-04 
 6.2980432926824036e-04  6.4050447823727234e-04  6.2101858067594286e-04  6.5020669054033917e-04  6.3179138000476933e-04  6.1268894407771250e-04 
 1.5434775748914904e-03  1.5415232716079795e-03  1.5438225922240619e-03  1.5392602989042015e-03  1.5417614954159372e-03  1.5440645705576321e-03 
 3.3727107055151633e-04  3.5205522363364854e-04  3.4411306162337931e-04  3.6717178019540813e-04  3.5870988614522661e-04  3.5035716994157669e-04 
 1.6647914752305167e-04  1.7256474581331217e-04  1.7178992184888471e-04  1.7912094909674464e-04  1.7824845904519098e-04  1.7731187442734974e-04 
 1.5567924401184334e-03  1.5615200195679996e-03  1.5547933606009005e-03  1.5662587840630483e-03  1.5598910257821432e-03  1.5527052882776053e-03 
 1.5988687005726004e-03  1.5911254986719645e-03  1.5877631371335372e-03  1.5836040413459067e-03  1.5799385450361335e-03  1.5761506764702543e-03 
 8.0408928586472546e-05  8.0054771565772403e-05  7.5368740494711394e-05  7.9936515451138940e-05  7.4841071318695968e-05  7.0120361134084537e-05 
 5.2434394198124976e-04  5.4294726193778614e-04  5.3760263149509047e-04  5.6193282284645765e-04  5.5593477116920652e-04  5.4998796244861944e-04 
 1.6594443362228726e-03  1.6522245600705142e-03  1.6477243498847127e-03  1.6445095528266882e-03  1.6402495305086987e-03  1.6360237172879429e-03 
 1.5484284493064349e-03  1.5480085196111551e-03  1.5469266358222021e-03  1.5473879782331623e-03  1.5463512429948728e-03  1.5452131085288343e-03 
 5.1033149611674625e-04  5.2920141972800482e-04  5.1798045345974114e-04  5.4772320859601954e-04  5.3745970896673027e-04  5.2588716262530553e-04 
 1.4842774398694212e-04  1.4439873722377252e-04  1.4785388675108915e-04  1.4082015187684652e-04  1.4387993427971598e-04  1.4729895006311233e-04 
 1.5476042058974732e-04  1.6203992093358281e-04  1.6618458904505949e-04  1.6916832730906161e-04  1.7393642240021812e-04  1.7841881696869610e-04 
 1.5517374779314114e-04  1.5853208289863568e-04  1.5807714112093540e-04  1.6209027060605909e-04  1.6164911054074101e-04  1.6122875450995486e-04 
 1.5476042058974718e-04  1.5188648614386077e-04  1.6203992093358801e-04  1.4876501487859809e-04  1.5858342524332908e-04  1.6916832730905473e-04 
 1.3868308424256574e-03  1.3981123167313427e-03  1.3896099068547751e-03  1.4089929937264674e-03  1.4006441960459041e-03  1.3925154393054078e-03 
 1.0671609868181449e-03  1.0737877304869458e-03  1.0818127043988434e-03  1.0810434278879183e-03  1.0887973473995363e-03  1.0963009797376041e-03 
 1.5695137110409947e-04  1.5249934369107016e-04  1.5637662522394614e-04  1.4842774398694816e-04  1.5197119139412777e-04  1.5580632008892927e-04 
 1.4447748129795246e-03  1.4533606417949920e-03  1.4467737517803567e-03  1.4615247220116079e-03  1.4552302321208291e-03  1.4489067241538890e-03 
 1.3917489763259482e-03  1.3877564476124696e-03  1.3827941861901188e-03  1.3837617045571737e-03  1.3785236297314961e-03  1.3736474439559030e-03 
 1.5499241170080869e-03  1.5502462387061860e-03  1.5509326358774469e-03  1.5503218430121411e-03  1.5511423407907822e-03  1.5517936001991305e-03 
 1.2403707017299287e-04  1.1837370770296761e-04  1.2624781075974746e-04  1.1254991575009457e-04  1.2008342194449815e-04  1.2838544921212817e-04 
 1.3965397385084914e-04  1.3415965454751210e-04  1.4459344435950843e-04  1.2838544921213481e-04  1.3852123434327101e-04  1.4955875390225008e-04 
 2.2357948098429502e-04  2.2485627285795414e-04  2.1697945855250048e-04  2.2607577611255484e-04  2.1814444504338331e-04  2.1061426818600064e-04 
 1.3774606140899451e-04  1.3147388013161880e-04  1.3381362048629951e-04  1.2600418101681304e-04  1.2783983308649506e-04  1.2978261433330780e-04 
 1.5672566302995868e-03  1.5718611408875225e-03  1.5668052114049570e-03  1.5766241326373837e-03  1.5718551743942168e-03  1.5662587840629934e-03 
 1.5764779037931538e-03  1.5848593948050880e-03  1.5771625829904855e-03  1.5932167951170887e-03  1.5859389143704110e-03  1.5779773898429755e-03 
 5.4487436535778037e-04  5.4498452487526162e-04  5.5983598779308752e-04  5.4500362143235107e-04  5.6046756987516262e-04  5.7488227156817580e-04 
 1.0198088200405640e-03  9.8503641229165124e-04  1.0096834669425239e-03  9.4851569955150866e-04  9.7248962565793713e-04  9.9836907674247721e-04 
 1.2267493150538197e-03  1.2450440507613604e-03  1.2392409995257883e-03  1.2630484256738583e-03  1.2577062706708993e-03  1.2524134070156668e-03 
 1.3962748951992447e-03  1.3903430744879191e-03  1.3798514813067216e-03  1.3849138581307444e-03  1.3741507852238182e-03  1.3630242891612819e-03 
 7.7076230528699385e-04  7.7798468398528444e-04  7.5543604736771420e-04  7.8607915204816135e-04  7.6446674832737803e-04  7.4023435411888557e-04 
 1.1989279371207829e-03  1.1772589723655475e-03  1.1874677473699183e-03  1.1559845499256318e-03  1.1652505204859294e-03  1.1757118519320228e-03 
 1.5492462271930005e-03  1.5484140041378961e-03  1.5499783986675356e-03  1.5472896025518006e-03  1.5490429895502400e-03  1.5505761599956358e-03 
 1.5630826313706972e-03  1.5633116830797316e-03  1.5644838750722570e-03  1.5626542834063588e-03  1.5645636621045708e-03  1.5659927819515922e-03 
 9.0644710441178087e-04  8.8873014208886889e-04  8.9342837379340675e-04  8.7261621407813184e-04  8.7565865151861930e-04  8.7922419884304550e-04 
 1.1672132687138793e-03  1.1994397579681141e-03  1.1690391419232466e-03  1.2304050606081248e-03  1.2018646009038262e-03  1.1723735089028164e-03 
 1.5076762631167553e-03  1.5075594868689155e-03  1.5140897688005796e-03  1.5075351171549723e-03  1.5139648368692313e-03  1.5200397655238565e-03 
 1.5301322037853063e-04  1.4999752825124230e-04  1.5249512707633076e-04  1.4716547617384500e-04  1.4946894529262509e-04  1.5203848309858120e-04 
 1.4160397364651765e-04  1.4102692053492819e-04  1.3930835220372380e-04  1.4053976289241804e-04  1.3875311337569916e-04  1.3723735890176108e-04 
 1.3925154393054078e-03  1.4040936705635066e-03  1.3964053597199726e-03  1.4152644972550968e-03  1.4076951692199705e-03  1.4003587089448434e-03 
 1.7030399392769134e-03  1.7022901647679365e-03  1.7126413189855676e-03  1.7005783582251931e-03  1.7113800881277501e-03  1.7218372016747426e-03 
 1.3556286917496861e-04  1.3543769206084862e-04  1.3797681826729257e-04  1.3537185541962534e-04  1.3791242164765098e-04  1.4082015187684088e-04 
 7.4846844216718998e-04  7.4750980225342628e-04  7.6160021833727759e-04  7.4670042833774265e-04  7.5994300633127829e-04  7.7425127662545724e-04 
 1.4397665180844007e-04  1.4611411812920526e-04  1.4662005395957994e-04  1.4842774398694756e-04  1.4892704280809331e-04  1.4946622827321748e-04 
 1.4489067241538888e-03  1.4425894276462361e-03  1.4395542519775894e-03  1.4363544720164081e-03  1.4330117582335310e-03  1.4297590670305550e-03 
 1.4704044408662875e-03  1.4694005898669654e-03  1.4770897805506862e-03  1.4685494032654180e-03  1.4761534872524966e-03  1.4834925607537120e-03 
 8.7261621407809964e-04  8.5661379464398103e-04  8.5945970498043560e-04  8.4193916048389515e-04  8.4328572046467125e-04  8.4490789435546923e-04 
 1.5184957464775294e-03  1.5136884112464056e-03  1.5133992523579673e-03  1.5085944322412094e-03  1.5082694749505288e-03  1.5079893800558867e-03 
 1.4273396811876429e-03  1.4220388038976668e-03  1.4320718003688459e-03  1.4168054251293496e-03  1.4269571038967588e-03  1.4367042166874913e-03 
 1.0832029930542193e-03  1.0710119364059426e-03  1.0653408626501470e-03  1.0601012740268471e-03  1.0540717774624136e-03  1.0475508738778277e-03 
 1.3499647555359096e-03  1.3496918810444263e-03  1.3634389786198076e-03  1.3498391239115622e-03  1.3629974708834552e-03  1.3764292521693255e-03 
 1.3386676890855554e-04  1.3288991938565240e-04  1.3319351895058401e-04  1.3206144294713318e-04  1.3227634382372336e-04  1.3274799388418709e-04 
 1.3512936541997770e-04  1.3435885632034683e-04  1.3361275908657048e-04  1.3370427625705874e-04  1.3289559153611860e-04  1.3234992866338036e-04 
 1.1138672695115823e-04  1.1075750837163928e-04  1.1385454492300984e-04  1.1036110693493291e-04  1.1373589719097717e-04  1.1690737034107615e-04 
 5.8920324405119034e-04  6.0143793070916178e-04  5.8186377337783124e-04  6.1268894407773083e-04  5.9400548527847429e-04  5.7488227156817580e-04 
 1.5553701840309289e-03  1.5558483976730597e-03  1.5558944471253788e-03  1.5558994491641966e-03  1.5562830943068339e-03  1.5563667056582612e-03 
 7.7604970174730524e-04  7.6404349427360452e-04  7.5976106019052885e-04  7.5299874759841877e-04  7.4793742342270657e-04  7.4216065890400802e-04 
 3.9356147787596548e-04  4.1666233531271264e-04  4.1805792507135074e-04  4.4027491218217695e-04  4.4278907685525861e-04  4.4305624038984323e-04 
 1.6042563685568982e-03  1.6016871614268546e-03  1.6119583851899586e-03  1.5988687005726605e-03  1.6096210956498267e-03  1.6198808374451095e-03 
 1.5226650994607067e-03  1.5279440130684875e-03  1.5212550517634742e-03  1.5329822226218485e-03  1.5268015540405820e-03  1.5200349072097882e-03 
 5.6843840991941351e-04  5.9087894515888332e-04  5.7951791353113929e-04  6.1256099885990012e-04  6.0243003726837528e-04  5.9102020417808193e-04 
 1.4952839672850125e-03  1.4946068679220035e-03  1.5016635520026143e-03  1.4940446165125365e-03  1.5010129086375941e-03  1.5076762631167551e-03 
 3.0768930598185643e-05  2.2731670150817024e-05  2.2995743723163932e-05  1.4804869157307464e-05  1.4823493242267402e-05  1.4899494889694953e-05 
 6.9428119822040584e-04  6.8428411216591085e-04  6.7276625836146676e-04  6.7490537200061993e-04  6.6320727653576127e-04  6.4996447003113245e-04 
 1.3634183498591201e-03  1.3690808239697424e-03  1.3806816061766845e-03  1.3756360027690248e-03  1.3857884348481772e-03  1.3974200364980892e-03 
 1.3017729592650527e-03  1.2851856804343481e-03  1.2790949821682245e-03  1.2680794806087328e-03  1.2616667923052377e-03  1.2562599933838502e-03 
 1.5796466328180196e-03  1.5791049651019977e-03  1.5838776389840315e-03  1.5780951908383326e-03  1.5835547517869780e-03  1.5884107929942789e-03 
 1.3581236124652748e-03  1.3456420649389665e-03  1.3563736585168547e-03  1.3332858807651230e-03  1.3444152748073482e-03  1.3551217090105366e-03 
 1.5929555664469736e-03  1.5980476678925729e-03  1.5951132688099899e-03  1.6033834152467655e-03  1.6005450090614982e-03  1.5969848889716880e-03 
 1.2657271397215212e-03  1.2666778061106098e-03  1.2828179900541276e-03  1.2680794806087367e-03  1.2833948147006615e-03  1.2995671229224753e-03 
 1.5650361511225278e-04  1.5917095350128269e-04  1.5581654690821975e-04  1.6209027060605857e-04  1.5853208289864072e-04  1.5517374779314106e-04 
 1.0874785673912343e-03  1.0754078735482606e-03  1.0941679032632678e-03  1.0640120243632356e-03  1.0822106746690514e-03  1.1005923827250095e-03 
 1.5226650994607063e-03  1.5212550517634267e-03  1.5148234025317126e-03  1.5200349072098417e-03  1.5133206765611698e-03  1.5063114658926883e-03 
 1.1690737034107616e-04  1.1373589719097368e-04  1.1764531392519082e-04  1.1036110693493317e-04  1.1414650039430885e-04  1.1862146275391016e-04 
 1.5316211636559631e-03  1.5258008486528623e-03  1.5260123142472359e-03  1.5194331655424629e-03  1.5196518226724834e-03  1.5200349072097882e-03 
 2.4329375350998455e-04  2.4904843677356266e-04  2.4084092123216673e-04  2.5489369719533658e-04  2.4644739480484307e-04  2.3837605581272420e-04 
 8.8163489349096162e-04  8.8752937211528397e-04  8.7144723451961447e-04  8.9227131627548088e-04  8.7683863014248378e-04  8.6242154869827035e-04 
 1.2486453877714890e-04  1.2682530730997180e-04  1.2341280034587740e-04  1.2929764540940710e-04  1.2521963730072324e-04  1.2177784457236488e-04 
 2.9493229607570516e-04  3.0888146879300165e-04  3.0637042665771630e-04  3.2333511640070766e-04  3.2045646309705457e-04  3.1739622946129161e-04 
 1.6360237172879431e-03  1.6334521421816732e-03  1.6431247787395996e-03  1.6307771934909287e-03  1.6401310141349139e-03  1.6495868407782259e-03 
 2.7177501281799735e-04  2.7191015694632073e-04  2.6232279258348707e-04  2.7177575571001126e-04  2.6252026657376537e-04  2.5325125541680768e-04 
 4.0195511071296138e-04  4.2415149608758827e-04  4.1671898001988453e-04  4.4660794965685637e-04  4.3963495464001087e-04  4.3180791435937335e-04 
 1.4571659563084654e-03  1.4555286809615109e-03  1.4639109442926574e-03  1.4540904034841306e-03  1.4623727870701644e-03  1.4704044408662873e-03 
 2.2487270943271118e-04  2.1569932214231087e-04  2.0914709423215419e-04  2.0650692645441876e-04  2.0063617891083276e-04  1.9437694644339610e-04 
 1.7033900354491939e-04  1.7345683934502328e-04  1.6600923658539375e-04  1.7660061050285181e-04  1.6882815082157272e-04  1.6170728498423245e-04 
 3.4104615385781957e-04  3.3267520286463410e-04  3.4988682057815202e-04  3.2445057639008719e-04  3.4108442114376566e-04  3.5816353310916428e-04 
 1.2924513908487030e-04  1.2844702137167983e-04  1.2889326234196246e-04  1.2804739288752408e-04  1.2812381293331464e-04  1.2857917846330791e-04 
 2.1758263881905025e-04  2.0666975511239070e-04  2.2066005015659838e-04  1.9592580188332773e-04  2.0919642638584816e-04  2.2303280343377284e-04 
 1.2403707017299300e-04  1.2624781075974359e-04  1.3150198207702684e-04  1.2838544921213378e-04  1.3415965454751614e-04  1.3965397385084906e-04 
 1.5336762355764835e-03  1.5376544769145422e-03  1.5199006003897148e-03  1.5421972023421907e-03  1.5243523275456814e-03  1.5059252015830308e-03 
 1.5096298597512558e-03  1.5104455989258696e-03  1.4958255703463796e-03  1.5118826982911842e-03  1.4971129431458488e-03  1.4818902912800413e-03 
 1.9222307009726688e-04  1.9203709618270616e-04  1.8597395420991286e-04  1.9176811117870682e-04  1.8578822087401227e-04  1.8006548616895278e-04 
 1.2978261433330772e-04  1.2383671624625835e-04  1.2537013566049494e-04  1.1862146275391467e-04  1.1968644442567689e-04  1.2083760933362180e-04 
 1.5766241326373275e-03  1.5806580758866234e-03  1.5813651946291879e-03  1.5838480894210768e-03  1.5851994860988771e-03  1.5862796207558750e-03 
 1.5733740513422588e-04  1.6250089906880684e-04  1.6178055197395210e-04  1.6810093472621892e-04  1.6730402070690617e-04  1.6647914752305153e-04 
 1.1138672695115812e-04  1.0837443109932722e-04  1.1075750837164264e-04  1.0517658786745682e-04  1.0748048514910884e-04  1.1036110693492837e-04 
 1.3326803426073203e-03  1.3319781870768260e-03  1.3546157810414669e-03  1.3337382517161337e-03  1.3544794914326359e-03  1.3756360027689729e-03 
 1.6247900491668233e-03  1.6148561832724695e-03  1.6225828372403563e-03  1.6042563685569574e-03  1.6119583851899599e-03  1.6198808374451095e-03 
 4.5415270400202750e-04  4.4021514192285296e-04  4.5505088110235224e-04  4.2648867207923714e-04  4.4141448853594190e-04  4.5550792945515701e-04 