<VTKFile type="UnstructuredGrid" version="1.0" byte_order="LittleEndian" header_type="UInt64">
<UnstructuredGrid>
<Piece NumberOfPoints="7326" NumberOfCells="4884">
<PointData>
<DataArray type="Float64" Name="u" NumberOfComponents="3" format="ascii">
 1.6457034566786982e-03 -1.3159163687985601e-06  0.0000000000000000e+00  1.6460359745168495e-03 -1.0425191687079678e-06  0.0000000000000000e+00 
 1.6386305463220790e-03 -1.0545788938625921e-06  0.0000000000000000e+00  1.6457612023875079e-03 -7.3373653574423209e-07  0.0000000000000000e+00 
 1.6389539255338911e-03 -8.4100291564780705e-07  0.0000000000000000e+00  1.6317572591015843e-03 -8.9174214371369118e-07  0.0000000000000000e+00 
 1.2529042079255552e-04  3.9426319045744322e-06  0.0000000000000000e+00  1.1974277307555536e-04  3.9298357511652593e-06  0.0000000000000000e+00 
 1.2288136931481550e-04  3.4913565426128989e-06  0.0000000000000000e+00  1.1478205062796506e-04  3.7262012597227474e-06  0.0000000000000000e+00 
 1.1788459809682417e-04  3.3850741224444352e-06  0.0000000000000000e+00  1.2076685563151538e-04  2.9695407928011617e-06  0.0000000000000000e+00 
 7.1089884966658599e-05 -3.7156741778680640e-07  0.0000000000000000e+00  8.3047387728692936e-05 -9.5969009112425423e-08  0.0000000000000000e+00 
 7.4678856759070799e-05 -1.7331865457118179e-06  0.0000000000000000e+00  9.5125573679409541e-05  1.6385084219321892e-07  0.0000000000000000e+00 
 8.6172344981509926e-05 -1.5894193352048563e-06  0.0000000000000000e+00  7.7798070655303754e-05 -2.9404800666725433e-06  0.0000000000000000e+00 
 2.0384896931663202e-04 -1.6237642018702084e-05  0.0000000000000000e+00  1.9274915316114369e-04 -1.2503151552322944e-05  0.0000000000000000e+00 
 1.9599137154835731e-04 -1.6038277100643275e-05  0.0000000000000000e+00  1.8243888199588373e-04 -9.2773627851709849e-06  0.0000000000000000e+00 
 1.8536566613635278e-04 -1.2344635573464381e-05  0.0000000000000000e+00  1.8805161435780780e-04 -1.5892366594353513e-05  0.0000000000000000e+00 
 2.2854081114817573e-04 -2.5100903885722878e-05  0.0000000000000000e+00  2.1580395615118943e-04 -2.0403270063344996e-05  0.0000000000000000e+00 
 2.2009662349179717e-04 -2.4555413319423539e-05  0.0000000000000000e+00  2.0384896931664024e-04 -1.6237642018703443e-05  0.0000000000000000e+00 
 2.0773020405738006e-04 -1.9907699741595031e-05  0.0000000000000000e+00  2.1151321899650044e-04 -2.4067395506284788e-05  0.0000000000000000e+00 
 1.5132465334925430e-04  1.7207353073234706e-06  0.0000000000000000e+00  1.5556146629265872e-04  1.7026978147749766e-06  0.0000000000000000e+00 
 1.4722619989568695e-04  2.7681920373442594e-06  0.0000000000000000e+00  1.5978513712070391e-04  1.5674451372141794e-06  0.0000000000000000e+00 
 1.5104081170600213e-04  2.7510612731938577e-06  0.0000000000000000e+00  1.4296570263546457e-04  3.6247040769099825e-06  0.0000000000000000e+00 
 1.5591078319491397e-03  8.8520236560534287e-06  0.0000000000000000e+00  1.5719503133673322e-03  6.8789689368699322e-06  0.0000000000000000e+00 
 1.5632328615433743e-03  6.9956222109444971e-06  0.0000000000000000e+00  1.5844500555060139e-03  5.0613607976715653e-06  0.0000000000000000e+00 
 1.5759424893436599e-03  5.2797064393563660e-06  0.0000000000000000e+00  1.5675629455865606e-03  5.3347103054286168e-06  0.0000000000000000e+00 
 2.5306055874586446e-04  9.5276604214190400e-05  0.0000000000000000e+00  2.4479873758938162e-04  9.6193867971174418e-05  0.0000000000000000e+00 
 2.4325271254720140e-04  8.8684091384540675e-05  0.0000000000000000e+00  2.3654468953898390e-04  9.7199081243677668e-05  0.0000000000000000e+00 
 2.3527811408471287e-04  8.9456115556466514e-05  0.0000000000000000e+00  2.3387219314720102e-04  8.2285662299046717e-05  0.0000000000000000e+00 
 1.1754213919504626e-04 -1.1651619691054002e-07  0.0000000000000000e+00  1.1871806778370425e-04 -4.0665209466366009e-07  0.0000000000000000e+00 
 1.1920435881503387e-04 -1.0833443223690133e-07  0.0000000000000000e+00  1.2045573046423650e-04 -5.8549130128347106e-07  0.0000000000000000e+00 
 1.2040369960104039e-04 -2.7337257725411634e-07  0.0000000000000000e+00  1.2071188234625589e-04 -6.4789325194912353e-08  0.0000000000000000e+00 
 1.4386747560682185e-04 -1.0368845959540156e-05  0.0000000000000000e+00  1.3349213016098963e-04 -1.0930353231411637e-05  0.0000000000000000e+00 
 1.3307871061921103e-04 -7.8612760290970333e-06  0.0000000000000000e+00  1.2295715037282095e-04 -1.1493084118008862e-05  0.0000000000000000e+00 
 1.2304413855937865e-04 -8.4084664115395408e-06  0.0000000000000000e+00  1.2265786775517081e-04 -5.5860930630087258e-06  0.0000000000000000e+00 
 3.4051763057895063e-04  7.8933289214141444e-05  0.0000000000000000e+00  3.2995562647109993e-04  6.9404310700752779e-05  0.0000000000000000e+00 
 3.4982679126923277e-04  7.9085900775124825e-05  0.0000000000000000e+00  3.1963546511899808e-04  6.0767092987011045e-05  0.0000000000000000e+00 
 3.3881021612351990e-04  6.9720167418466721e-05  0.0000000000000000e+00  3.5849932087284937e-04  7.9274191925533463e-05  0.0000000000000000e+00 
 9.5582458479133209e-04  4.5757077211825461e-04  0.0000000000000000e+00  9.5712938315597096e-04  4.5761480010900630e-04  0.0000000000000000e+00 
 9.6902467554700362e-04  4.5322750696053730e-04  0.0000000000000000e+00  9.5826325855242513e-04  4.5722086071433850e-04  0.0000000000000000e+00 
 9.6959363803296049e-04  4.5298974129044466e-04  0.0000000000000000e+00  9.8220594983577741e-04  4.4856648019127483e-04  0.0000000000000000e+00 
 2.8950211315146619e-04  6.3342040085160402e-05  0.0000000000000000e+00  3.0570933882878207e-04  7.0900253866250926e-05  0.0000000000000000e+00 
 2.9780024379348342e-04  7.1913094393097357e-05  0.0000000000000000e+00  3.2242683167203555e-04  7.8896513552411220e-05  0.0000000000000000e+00 
 3.1462033786499709e-04  8.0034224687698378e-05  0.0000000000000000e+00  3.0630446586662227e-04  8.1297033057230731e-05  0.0000000000000000e+00 
 1.4053976289241321e-04 -2.7405131991707893e-05  0.0000000000000000e+00  1.3828393199276452e-04 -2.3495552239616328e-05  0.0000000000000000e+00 
 1.3875311337569905e-04 -2.5579772998170861e-05  0.0000000000000000e+00  1.3626004632298630e-04 -1.9856424851554728e-05  0.0000000000000000e+00 
 1.3670477232319102e-04 -2.1605161997386992e-05  0.0000000000000000e+00  1.3723735890176108e-04 -2.3495494872482532e-05  0.0000000000000000e+00 
 1.6483435895473582e-03 -4.0202601627640063e-06  0.0000000000000000e+00  1.6400941421940687e-03 -2.3819276758133174e-06  0.0000000000000000e+00 
 1.6377100487569608e-03 -2.2654698944132886e-06  0.0000000000000000e+00  1.6319211114975316e-03 -1.1764113207997084e-06  0.0000000000000000e+00 
 1.6294133174289797e-03 -8.5669912829642289e-07  0.0000000000000000e+00  1.6268066256777004e-03 -4.1763991567118990e-07  0.0000000000000000e+00 
 7.0385208594294149e-04 -4.5016500025072504e-04  0.0000000000000000e+00  7.1406777759823372e-04 -4.5362491740236091e-04  0.0000000000000000e+00 
 7.1626304375122310e-04 -4.5471052386104524e-04  0.0000000000000000e+00  7.2439222605207390e-04 -4.5685912854463658e-04  0.0000000000000000e+00 
 7.2597125671387992e-04 -4.5814570741628356e-04  0.0000000000000000e+00  7.2742247710620288e-04 -4.5903723402181574e-04  0.0000000000000000e+00 
 1.4768094052884549e-03  4.2212643972472774e-05  0.0000000000000000e+00  1.4831493973130549e-03  3.7309627211762065e-05  0.0000000000000000e+00 
 1.4844531140306414e-03  4.0618535024552727e-05  0.0000000000000000e+00  1.4892133592427467e-03  3.2837072567045144e-05  0.0000000000000000e+00 
 1.4904417760656259e-03  3.5783769237474777e-05  0.0000000000000000e+00  1.4918631384440236e-03  3.9006967001712142e-05  0.0000000000000000e+00 
 1.6714124659218846e-03  4.4072654263084346e-07  0.0000000000000000e+00  1.6666246205897671e-03  9.9586558914444206e-07  0.0000000000000000e+00 
 1.6619730427711681e-03  4.8031267888833863e-07  0.0000000000000000e+00  1.6610750652096642e-03  1.3795388914212723e-06  0.0000000000000000e+00 
 1.6570276583416834e-03  8.8744283691305125e-07  0.0000000000000000e+00  1.6526787736721952e-03  4.8992809549026205e-07  0.0000000000000000e+00 
 1.5610011774948613e-03  2.6307869939153462e-06  0.0000000000000000e+00  1.5542511212249847e-03  2.5986621377875369e-06  0.0000000000000000e+00 
 1.5492216005051174e-03  3.7775939763602569e-06  0.0000000000000000e+00  1.5477362063462468e-03  2.6340165426315009e-06  0.0000000000000000e+00 
 1.5423146493297032e-03  3.8082330772351434e-06  0.0000000000000000e+00  1.5368773969559818e-03  5.1733577552114656e-06  0.0000000000000000e+00 
 1.8335885095590283e-04  3.8344228784632336e-05  0.0000000000000000e+00  1.7909465202684162e-04  3.9312816651206476e-05  0.0000000000000000e+00 
 1.7562540652742755e-04  3.3807618697736689e-05  0.0000000000000000e+00  1.7488090871461059e-04  4.0259851560161106e-05  0.0000000000000000e+00 
 1.7163093830137113e-04  3.4586254109922798e-05  0.0000000000000000e+00  1.6848382356925672e-04  2.9561810197606050e-05  0.0000000000000000e+00 
 3.8576441512238009e-05  3.1587279001978380e-06  0.0000000000000000e+00  4.2885160458050872e-05  3.9132197744998367e-06  0.0000000000000000e+00 
 5.0195595681886131e-05  3.6130740247723284e-06  0.0000000000000000e+00  4.6748091926057011e-05  4.4771167354491029e-06  0.0000000000000000e+00 
 5.3911665190085718e-05  4.3828123779160696e-06  0.0000000000000000e+00  6.1636606987684118e-05  3.9920736337686678e-06  0.0000000000000000e+00 
 1.5407014909076711e-03 -4.0083156264486643e-05  0.0000000000000000e+00  1.5391671342481266e-03 -4.4304791981429461e-05  0.0000000000000000e+00 
 1.5406932440248380e-03 -3.9665811119460288e-05  0.0000000000000000e+00  1.5375479587472084e-03 -4.8894999872173748e-05  0.0000000000000000e+00 
 1.5391020458000221e-03 -4.3972309769458218e-05  0.0000000000000000e+00  1.5404929377170074e-03 -3.9060150877428683e-05  0.0000000000000000e+00 
 1.6118953900068004e-03 -2.4958714135740796e-06  0.0000000000000000e+00  1.5996075771054401e-03 -4.3889605606705569e-06  0.0000000000000000e+00 
 1.6096886017307030e-03 -2.3721890662015124e-06  0.0000000000000000e+00  1.5871447133094937e-03 -5.9849636340914960e-06  0.0000000000000000e+00 
 1.5975142347927035e-03 -3.9139727307151737e-06  0.0000000000000000e+00  1.6076594275077354e-03 -2.1306155377713661e-06  0.0000000000000000e+00 
 4.6748091926054124e-05  4.4771167354490131e-06  0.0000000000000000e+00  4.8878448552005830e-05  4.7427237661132529e-06  0.0000000000000000e+00 
 5.5573024590442561e-05  4.8314254171181308e-06  0.0000000000000000e+00  5.0827324231282955e-05  4.8185223551607859e-06  0.0000000000000000e+00 
 5.7293196084761955e-05  5.0777289477937781e-06  0.0000000000000000e+00  6.4280161159150289e-05  5.1237113583958122e-06  0.0000000000000000e+00 
 1.4139900258564907e-04 -3.4780546849714182e-05  0.0000000000000000e+00  1.4136298490027434e-04 -3.3676893199490669e-05  0.0000000000000000e+00 
 1.4265494377682303e-04 -3.8067471330646909e-05  0.0000000000000000e+00  1.4153336698992600e-04 -3.2314374167014628e-05  0.0000000000000000e+00 
 1.4268655259877392e-04 -3.6963157024152936e-05  0.0000000000000000e+00  1.4399385913181392e-04 -4.1624899747032223e-05  0.0000000000000000e+00 
 4.3742892612461127e-05  3.0330949088137903e-06  0.0000000000000000e+00  4.5992794933703427e-05  2.4517473527382159e-06  0.0000000000000000e+00 
 5.0688879341050990e-05  3.1942948784899687e-06  0.0000000000000000e+00  4.8311762398766655e-05  1.7540278313083273e-06  0.0000000000000000e+00 
 5.2747461513941519e-05  2.5386832220149297e-06  0.0000000000000000e+00  5.7463324244696632e-05  3.3084775221070037e-06  0.0000000000000000e+00 
 5.2946539130357312e-05 -2.9570473391175056e-06  0.0000000000000000e+00  5.7051986074723014e-05 -3.7220333464590636e-06  0.0000000000000000e+00 
 5.9718700602333946e-05 -3.1700851279355634e-06  0.0000000000000000e+00  6.1536056079525045e-05 -4.4108408470258851e-06  0.0000000000000000e+00 
 6.3955050403327352e-05 -3.9509581679240506e-06  0.0000000000000000e+00  6.6354817440822113e-05 -3.3630093982451684e-06  0.0000000000000000e+00 
 1.3875390366029444e-04  2.5695383150408299e-05  0.0000000000000000e+00  1.4008981972310635e-04  2.8854687463148777e-05  0.0000000000000000e+00 
 1.3912303449850879e-04  2.4502148673595906e-05  0.0000000000000000e+00  1.4153336698441478e-04  3.2314374149917953e-05  0.0000000000000000e+00 
 1.4053418199464740e-04  2.7676939008211025e-05  0.0000000000000000e+00  1.3968889340227792e-04  2.3049236025616785e-05  0.0000000000000000e+00 
 1.4050304369543640e-03 -4.7037161893741289e-05  0.0000000000000000e+00  1.4099826189881001e-03 -4.8330484186733248e-05  0.0000000000000000e+00 
 1.4193251555691005e-03 -4.2096384065017634e-05  0.0000000000000000e+00  1.4154019960915347e-03 -4.9763783913064654e-05  0.0000000000000000e+00 
 1.4244597842681356e-03 -4.3257514543401372e-05  0.0000000000000000e+00  1.4332283158074832e-03 -3.7444503371404783e-05  0.0000000000000000e+00 
 1.5481261052573533e-03  1.2926676449642467e-06  0.0000000000000000e+00  1.5574791957807359e-03  4.7855404683751232e-07  0.0000000000000000e+00 
 1.5532930230935976e-03  7.2420562663864459e-07  0.0000000000000000e+00  1.5662176779962596e-03 -1.0564708463546818e-07  0.0000000000000000e+00 
 1.5620173734373372e-03  4.8362955938851580e-08  0.0000000000000000e+00  1.5580972153623196e-03  2.9671739549857714e-07  0.0000000000000000e+00 
 4.7377349010506247e-04 -1.5770528712191555e-04  0.0000000000000000e+00  4.5936175376029011e-04 -1.4083234665233463e-04  0.0000000000000000e+00 
 4.4834997635547727e-04 -1.4023821466668411e-04  0.0000000000000000e+00  4.4505620843585889e-04 -1.2541487475858335e-04  0.0000000000000000e+00 
 4.3461627505462353e-04 -1.2460281929978448e-04  0.0000000000000000e+00  4.2344829575823061e-04 -1.2373003440490323e-04  0.0000000000000000e+00 
 1.5922766255962954e-03  2.5266423759494288e-06  0.0000000000000000e+00  1.5841269268472050e-03  2.6643677360648532e-06  0.0000000000000000e+00 
 1.5801406344668710e-03  3.8477648591551268e-06  0.0000000000000000e+00  1.5761506764703104e-03  2.6852194894488381e-06  0.0000000000000000e+00 
 1.5718468888199404e-03  3.9148294590832926e-06  0.0000000000000000e+00  1.5675629455865606e-03  5.3347103054286168e-06  0.0000000000000000e+00 
 5.2622135030709887e-04 -1.9055654777762459e-04  0.0000000000000000e+00  5.0949833740686768e-04 -1.7115132599468237e-04  0.0000000000000000e+00 
 4.9992148368635677e-04 -1.7392265421537054e-04  0.0000000000000000e+00  4.9282444774775922e-04 -1.5324533104712367e-04  0.0000000000000000e+00 
 4.8376232501272945e-04 -1.5546097918158871e-04  0.0000000000000000e+00  4.7377349010506301e-04 -1.5770528712191591e-04  0.0000000000000000e+00 
 1.5470345327864312e-05 -2.2447098544847204e-08  0.0000000000000000e+00  2.0383282975090142e-05  1.1147135272594345e-06  0.0000000000000000e+00 
 2.5912167361750227e-05  3.8895421640992852e-07  0.0000000000000000e+00  2.5686114889827792e-05  2.9573335790493557e-06  0.0000000000000000e+00 
 3.1358926960093482e-05  2.0916466397689800e-06  0.0000000000000000e+00  3.6642537845115571e-05  9.9692574274416221e-07  0.0000000000000000e+00 
 1.5247642430946042e-03 -2.4852697367740322e-05  0.0000000000000000e+00  1.5206989739035759e-03 -2.2620022066809721e-05  0.0000000000000000e+00 
 1.5342707457647381e-03 -2.0899755631474937e-05  0.0000000000000000e+00  1.5173301951258778e-03 -2.0364503951880613e-05  0.0000000000000000e+00 
 1.5309688042744836e-03 -1.8828156637146548e-05  0.0000000000000000e+00  1.5442592648318325e-03 -1.7234747728383304e-05  0.0000000000000000e+00 
 1.5764779037931533e-03  2.5385629148945081e-07  0.0000000000000000e+00  1.5771625829904365e-03 -4.0179287383910431e-08  0.0000000000000000e+00 
 1.5685623170859971e-03 -2.8358129249924628e-07  0.0000000000000000e+00  1.5779773898430308e-03 -4.1143104648115093e-07  0.0000000000000000e+00 
 1.5689960281634874e-03 -6.7075438739235130e-07  0.0000000000000000e+00  1.5599738995282829e-03 -1.0262447993640160e-06  0.0000000000000000e+00 
 1.5915179486239964e-03 -7.4318893324839495e-06  0.0000000000000000e+00  1.5891799019341968e-03 -6.7522230770261370e-06  0.0000000000000000e+00 
 1.6017299948896003e-03 -4.8149944219044826e-06  0.0000000000000000e+00  1.5871447133094939e-03 -5.9849636340914833e-06  0.0000000000000000e+00 
 1.5996075771054902e-03 -4.3889605606707043e-06  0.0000000000000000e+00  1.6118953900068004e-03 -2.4958714135740860e-06  0.0000000000000000e+00 
 1.6185190972848752e-03 -3.6760597819079853e-07  0.0000000000000000e+00  1.6126040786680962e-03 -3.2723580448831802e-07  0.0000000000000000e+00 
 1.6133243897203285e-03 -5.4129996099503763e-07  0.0000000000000000e+00  1.6069444289980731e-03 -2.8497292577182506e-07  0.0000000000000000e+00 
 1.6076643190595407e-03 -5.1314064660195706e-07  0.0000000000000000e+00  1.6077538993755859e-03 -6.9276647357875315e-07  0.0000000000000000e+00 
 1.2956137747871584e-04 -3.5335824885134861e-06  0.0000000000000000e+00  1.2765102447031971e-04 -2.2649222132360398e-06  0.0000000000000000e+00 
 1.2817419300896672e-04 -2.8629296018264131e-06  0.0000000000000000e+00  1.2624045503227617e-04 -1.2577356496340193e-06  0.0000000000000000e+00 
 1.2677232464187606e-04 -1.6106484439295862e-06  0.0000000000000000e+00  1.2723438117374431e-04 -2.0052527478575276e-06  0.0000000000000000e+00 
 1.5582908463079666e-04 -2.5540765957092636e-05  0.0000000000000000e+00  1.5658829976814454e-04 -2.8868047050194953e-05  0.0000000000000000e+00 
 1.6093189887376118e-04 -2.9395643566771071e-05  0.0000000000000000e+00  1.5733740513423233e-04 -3.2552893839734253e-05  0.0000000000000000e+00 
 1.6178055197395232e-04 -3.3127589120935225e-05  0.0000000000000000e+00  1.6647914752305153e-04 -3.3550442160549299e-05  0.0000000000000000e+00 
 9.2146331478557217e-05  5.9433582972472866e-06  0.0000000000000000e+00  9.7638101340558872e-05  6.0131313242720456e-06  0.0000000000000000e+00 
 9.8479956615295838e-05  5.8841460173408025e-06  0.0000000000000000e+00  1.0288441737128410e-04  6.0327756138923065e-06  0.0000000000000000e+00 
 1.0409907229823483e-04  5.9584446578463664e-06  0.0000000000000000e+00  1.0525278757094484e-04  5.6604372389100546e-06  0.0000000000000000e+00 
 1.5470546674171714e-03  1.3359847958775322e-05  0.0000000000000000e+00  1.5463069684200283e-03  1.1672115494122850e-05  0.0000000000000000e+00 
 1.5457988382504761e-03  1.6277503293088585e-05  0.0000000000000000e+00  1.5454050544249107e-03  9.7418897071067709e-06  0.0000000000000000e+00 
 1.5449955221883362e-03  1.4615718920015529e-05  0.0000000000000000e+00  1.5444222360048818e-03  1.9493013158479783e-05  0.0000000000000000e+00 
 1.3701204397799041e-04  1.6797237723390542e-05  0.0000000000000000e+00  1.3829186226818065e-04  1.9772198894639355e-05  0.0000000000000000e+00 
 1.3765521207964631e-04  1.5423406533508633e-05  0.0000000000000000e+00  1.3968889340228285e-04  2.3049236025616778e-05  0.0000000000000000e+00 
 1.3899741334574890e-04  1.8429646955514327e-05  0.0000000000000000e+00  1.3845966988451544e-04  1.3816551381577060e-05  0.0000000000000000e+00 
 8.7770839173385195e-05 -5.1092933975547888e-06  0.0000000000000000e+00  8.8665074126050139e-05 -4.5672619763583276e-06  0.0000000000000000e+00 
 8.2821152542568108e-05 -4.4553577583542478e-06  0.0000000000000000e+00  8.9628145414847389e-05 -3.8983113154002968e-06  0.0000000000000000e+00 
 8.4103716153733488e-05 -3.8034628532676492e-06  0.0000000000000000e+00  7.8411640866818467e-05 -3.6823473553336588e-06  0.0000000000000000e+00 
 1.5878700900506129e-03  8.4902416852219586e-07  0.0000000000000000e+00  1.5927656015319706e-03  8.0078690449296212e-07  0.0000000000000000e+00 
 1.5939757104455796e-03  8.5925902300207648e-07  0.0000000000000000e+00  1.5969848889717459e-03  6.7216026345629745e-07  0.0000000000000000e+00 
 1.5986903478586016e-03  7.7860034754399668e-07  0.0000000000000000e+00  1.6002431452160988e-03  8.3986366043482129e-07  0.0000000000000000e+00 
 1.6268066256777001e-03 -4.1763991567117327e-07  0.0000000000000000e+00  1.6294133174289285e-03 -8.5669912829635131e-07  0.0000000000000000e+00 
 1.6179151425638005e-03  8.3900281445595643e-07  0.0000000000000000e+00  1.6319211114975295e-03 -1.1764113207994863e-06  0.0000000000000000e+00 
 1.6206897785361507e-03  2.1094528920273287e-07  0.0000000000000000e+00  1.6091059284346829e-03  1.7009226512218218e-06  0.0000000000000000e+00 
 1.3004121219882189e-03  7.7854833027807139e-05  0.0000000000000000e+00  1.3220644131748077e-03  6.7435635495735930e-05  0.0000000000000000e+00 
 1.3122969623876142e-03  7.4559596464579376e-05  0.0000000000000000e+00  1.3429977846736850e-03  5.7954639924918137e-05  0.0000000000000000e+00 
 1.3338923709542642e-03  6.4146868532415386e-05  0.0000000000000000e+00  1.3249750355616827e-03  7.1260548646495496e-05  0.0000000000000000e+00 
 1.4672474289771756e-04 -5.5096599175126321e-06  0.0000000000000000e+00  1.3472955916227401e-04 -5.5196594251496126e-06  0.0000000000000000e+00 
 1.3503768375477994e-04 -3.1412493945706286e-06  0.0000000000000000e+00  1.2265786775517531e-04 -5.5860930630085234e-06  0.0000000000000000e+00 
 1.2353478879224340e-04 -3.2122104818785736e-06  0.0000000000000000e+00  1.2389683450197522e-04 -1.0931323103841232e-06  0.0000000000000000e+00 
 6.6354817440822248e-05 -3.3630093982451718e-06  0.0000000000000000e+00  7.0492352097858629e-05 -4.1463521684269096e-06  0.0000000000000000e+00 
 7.2454951765002417e-05 -3.5314502826618062e-06  0.0000000000000000e+00  7.5090499040762735e-05 -4.8296213145801476e-06  0.0000000000000000e+00 
 7.6737764588326050e-05 -4.3201048983794683e-06  0.0000000000000000e+00  7.8411640866818467e-05 -3.6823473553336588e-06  0.0000000000000000e+00 
 1.4751553036659077e-03 -2.0351238956778988e-05  0.0000000000000000e+00  1.4630452265445586e-03 -2.3750264393850741e-05  0.0000000000000000e+00 
 1.4670449954068601e-03 -2.4403745076867665e-05  0.0000000000000000e+00  1.4503873486584674e-03 -2.7459903700781280e-05  0.0000000000000000e+00 
 1.4543484261377211e-03 -2.8204973776906427e-05  0.0000000000000000e+00  1.4586327893551033e-03 -2.9049167182673574e-05  0.0000000000000000e+00 
 1.5509944115732720e-03 -1.1196354902317494e-05  0.0000000000000000e+00  1.5510856375658354e-03 -8.5519332518689980e-06  0.0000000000000000e+00 
 1.5519980538332410e-03 -6.8450391112868390e-06  0.0000000000000000e+00  1.5509851540543957e-03 -5.6498359207535243e-06  0.0000000000000000e+00 
 1.5519019848338287e-03 -4.1141626411873982e-06  0.0000000000000000e+00  1.5526917966191117e-03 -2.7796958574714280e-06  0.0000000000000000e+00 
 1.4024658944381379e-04  1.6743245742213503e-05  0.0000000000000000e+00  1.3764288465238197e-04  1.5623871482016091e-05  0.0000000000000000e+00 
 1.3722490119632625e-04  1.3749480307184696e-05  0.0000000000000000e+00  1.3537185541962472e-04  1.4279118013438313e-05  0.0000000000000000e+00 
 1.3497980205137524e-04  1.2581380649102291e-05  0.0000000000000000e+00  1.3460900096870057e-04  1.1048875080286935e-05  0.0000000000000000e+00 
 9.2521972827683906e-05 -9.7327054605890071e-08  0.0000000000000000e+00  8.9168743647551087e-05 -2.0601566118954495e-07  0.0000000000000000e+00 
 9.2184665975449738e-05 -1.1399863357826925e-06  0.0000000000000000e+00  8.5693656196215306e-05 -3.1289402775793629e-07  0.0000000000000000e+00 
 8.8837448005283455e-05 -1.2447276361455849e-06  0.0000000000000000e+00  9.2409485778152230e-05 -2.1498059301385804e-06  0.0000000000000000e+00 
 1.5761506764702538e-03  2.6852194894485230e-06  0.0000000000000000e+00  1.5684761785346112e-03  2.6649194184840209e-06  0.0000000000000000e+00 
 1.5641911635663008e-03  3.8481268712496920e-06  0.0000000000000000e+00  1.5610011774949168e-03  2.6307869939156545e-06  0.0000000000000000e+00 
 1.5563560224442039e-03  3.8306037658236771e-06  0.0000000000000000e+00  1.5517242599758460e-03  5.2163248479034389e-06  0.0000000000000000e+00 
 1.0044437834589360e-03  4.4006094912421969e-04  0.0000000000000000e+00  9.9333227268661264e-04  4.4441029059931144e-04  0.0000000000000000e+00 
 9.9926753075692157e-04  4.4107446170048986e-04  0.0000000000000000e+00  9.8220594983581362e-04  4.4856648019129045e-04  0.0000000000000000e+00 
 9.8863234003496430e-04  4.4553613407081869e-04  0.0000000000000000e+00  9.9451039191377367e-04  4.4195955295075898e-04  0.0000000000000000e+00 
 1.6154412459051628e-03 -2.6313702239428624e-06  0.0000000000000000e+00  1.6035726712964236e-03 -5.1931564349622021e-06  0.0000000000000000e+00 
 1.6135744613332485e-03 -2.6154936353479193e-06  0.0000000000000000e+00  1.5915179486240556e-03 -7.4318893324838250e-06  0.0000000000000000e+00 
 1.6017299948896016e-03 -4.8149944219044284e-06  0.0000000000000000e+00  1.6118953900068004e-03 -2.4958714135740860e-06  0.0000000000000000e+00 
 1.5510391461431897e-03  6.5754627165702622e-06  0.0000000000000000e+00  1.5540073342288376e-03  4.9247683585650172e-06  0.0000000000000000e+00 
 1.5537428473722881e-03  5.5151991984887846e-06  0.0000000000000000e+00  1.5565449253302018e-03  3.5509166947015465e-06  0.0000000000000000e+00 
 1.5561689399916760e-03  3.9552582914100805e-06  0.0000000000000000e+00  1.5558726067437273e-03  4.3565043988868772e-06  0.0000000000000000e+00 
 2.3821922317877015e-05 -2.9637885243211468e-06  0.0000000000000000e+00  3.3664192884723793e-05 -3.5922920635096877e-06  0.0000000000000000e+00 
 2.8889981765300052e-05 -3.5092766518034706e-06  0.0000000000000000e+00  4.3629882729593406e-05 -4.0110355864755568e-06  0.0000000000000000e+00 
 3.8456973167744474e-05 -4.0826382604161727e-06  0.0000000000000000e+00  3.3653273578175052e-05 -3.9276880385853240e-06  0.0000000000000000e+00 
 1.5004185620796264e-03 -8.2926908873928750e-06  0.0000000000000000e+00  1.4882067210749727e-03 -1.0711420247374239e-05  0.0000000000000000e+00 
 1.4906676653731179e-03 -1.0282264868593915e-05  0.0000000000000000e+00  1.4754868413866646e-03 -1.3465336070274256e-05  0.0000000000000000e+00 
 1.4778512118425163e-03 -1.3023651208771793e-05  0.0000000000000000e+00  1.4806498265005272e-03 -1.2714400746920957e-05  0.0000000000000000e+00 
 5.0597787621025905e-05 -4.8000638234442169e-06  0.0000000000000000e+00  5.9363187032779286e-05 -5.1121206801753123e-06  0.0000000000000000e+00 
 5.3677281155890420e-05 -4.9531998648038476e-06  0.0000000000000000e+00  6.8112038098444620e-05 -5.3630959502253932e-06  0.0000000000000000e+00 
 6.2064094595433233e-05 -5.2564143632032564e-06  0.0000000000000000e+00  5.6524797193813501e-05 -4.9356349490864493e-06  0.0000000000000000e+00 
 9.0976212989664728e-05  1.5795933299677674e-05  0.0000000000000000e+00  7.3204137944592936e-05  1.3606027273035228e-05  0.0000000000000000e+00 
 8.5111503881966336e-05  1.8630389919188188e-05  0.0000000000000000e+00  5.5764965460725008e-05  1.0958068932456288e-05  0.0000000000000000e+00 
 6.7167625640244665e-05  1.5991985761045887e-05  0.0000000000000000e+00  7.9011689262151050e-05  2.1427646458055208e-05  0.0000000000000000e+00 
 1.4042222906937671e-04  6.0386169661926314e-06  0.0000000000000000e+00  1.2925112678639821e-04  3.1252454405409735e-06  0.0000000000000000e+00 
 1.2737401745245835e-04  5.3741546772908541e-06  0.0000000000000000e+00  1.1859165946635257e-04  6.5484440626893836e-07  0.0000000000000000e+00 
 1.1684193309852311e-04  2.6011789582709687e-06  0.0000000000000000e+00  1.1453443831975745e-04  4.7666926055910611e-06  0.0000000000000000e+00 
 1.4116014241670593e-03  1.8937601564152670e-04  0.0000000000000000e+00  1.4199272416906090e-03  1.9253645452715974e-04  0.0000000000000000e+00 
 1.4134285436393980e-03  1.9818349277209559e-04  0.0000000000000000e+00  1.4282371669204429e-03  1.9594457324570390e-04  0.0000000000000000e+00 
 1.4219847242294083e-03  2.0168109263297035e-04  0.0000000000000000e+00  1.4155687592769901e-03  2.0745733501933286e-04  0.0000000000000000e+00 
 4.3629882729592803e-05 -4.0110355864754442e-06  0.0000000000000000e+00  5.3315946283352140e-05 -4.3018863430221367e-06  0.0000000000000000e+00 
 4.7267309372408673e-05 -4.4812557626847652e-06  0.0000000000000000e+00  6.3057700931585237e-05 -4.5059815835643962e-06  0.0000000000000000e+00 
 5.6573722986397301e-05 -4.7921511844516629e-06  0.0000000000000000e+00  5.0597787621025837e-05 -4.8000638234442185e-06  0.0000000000000000e+00 
 5.6524797193813556e-05 -4.9356349490864408e-06  0.0000000000000000e+00  6.4245297573513172e-05 -5.2119747370776310e-06  0.0000000000000000e+00 
 5.9091292932729852e-05 -4.7529710774450193e-06  0.0000000000000000e+00  7.1896528735415887e-05 -5.4471695612837079e-06  0.0000000000000000e+00 
 6.6468087228077722e-05 -5.0067864005823291e-06  0.0000000000000000e+00  6.1536056079522389e-05 -4.4108408470258335e-06  0.0000000000000000e+00 
 2.8969057764458456e-04  3.2776827347941987e-05  0.0000000000000000e+00  3.0615143168649981e-04  3.8941006143880454e-05  0.0000000000000000e+00 
 3.0611004264580015e-04  3.8285020251547140e-05  0.0000000000000000e+00  3.2299178900007427e-04  4.5617005868362613e-05  0.0000000000000000e+00 
 3.2342073275472809e-04  4.5095083215906247e-05  0.0000000000000000e+00  3.2294832963335310e-04  4.4818481576531138e-05  0.0000000000000000e+00 
 1.5592424823378396e-03 -1.9504243237570283e-06  0.0000000000000000e+00  1.5595179270714032e-03 -1.2394239065499222e-06  0.0000000000000000e+00 
 1.5604056048923150e-03 -8.8586530665445005e-07  0.0000000000000000e+00  1.5593858961424414e-03 -2.9461879446005937e-07  0.0000000000000000e+00 
 1.5601157015339212e-03 -8.2767893101866987e-08  0.0000000000000000e+00  1.5609189911839861e-03  6.6701924078011072e-08  0.0000000000000000e+00 
 1.1472396816708835e-04  5.8807154303394431e-06  0.0000000000000000e+00  1.0750907262140787e-04  5.8404407059480643e-06  0.0000000000000000e+00 
 1.1248083908387986e-04  5.7062862740042283e-06  0.0000000000000000e+00  1.0092916294490568e-04  5.5961672258874016e-06  0.0000000000000000e+00 
 1.0577275329343652e-04  5.5035163959453728e-06  0.0000000000000000e+00  1.1039562637024371e-04  5.3480025923382604e-06  0.0000000000000000e+00 
 1.2742782204801061e-04  1.8276191298418699e-07  0.0000000000000000e+00  1.2772590141995837e-04  2.1747735469029273e-07  0.0000000000000000e+00 